
     Program PROJWFC v.7.2 starts on 19Jun2025 at 13:12:31 

     This program is part of the open-source Quantum ESPRESSO suite
     for quantum simulation of materials; please cite
         "P. Giannozzi et al., J. Phys.:Condens. Matter 21 395502 (2009);
         "P. Giannozzi et al., J. Phys.:Condens. Matter 29 465901 (2017);
         "P. Giannozzi et al., J. Chem. Phys. 152 154105 (2020);
          URL http://www.quantum-espresso.org", 
     in publications or presentations arising from this work. More details at
     http://www.quantum-espresso.org/quote

     Parallel version (MPI & OpenMP), running on      20 processor cores
     Number of MPI processes:                20
     Threads/MPI process:                     1

     MPI processes distributed on     1 nodes
     R & G space division:  proc/nbgrp/npool/nimage =      20
     82869 MiB available memory on the printing compute node when the environment starts


     Reading xml data from directory:

     ./tmp/mos2.save/

     IMPORTANT: XC functional enforced from input :
     Exchange-correlation= PZ
                           (   1   1   0   0   0   0   0)
     Any further DFT definition will be discarded
     Please, verify this is what you really want


     Parallelization info
     --------------------
     sticks:   dense  smooth     PW     G-vecs:    dense   smooth      PW
     Min         150      59     18                37712     9523    1548
     Max         151      60     19                37728     9544    1563
     Sum        3001    1189    361               754435   190631   31031

     Using Slab Decomposition


     negative rho (up, down):  5.548E-05 0.000E+00

     Gaussian broadening (read from input): ngauss,degauss=   0    0.001000


     Calling projwave .... 
     Subspace diagonalization in iterative solution of the eigenvalue problem:
     one sub-group per band group will be used
     ELPA distributed-memory algorithm (size of sub-group:  4*  4 procs)

     linear algebra parallelized on  16 procs

  Problem Sizes 
  natomwfc =           42
  nx       =           11
  nbnd     =           34
  nkstot   =          110
  npwx     =         1238
  nkb      =           62


     Atomic states used for projection
     (read from pseudopotential files):

     state #   1: atom   1 (Mo ), wfc  1 (l=0 j=0.5 m_j=-0.5)
     state #   2: atom   1 (Mo ), wfc  1 (l=0 j=0.5 m_j= 0.5)
     state #   3: atom   1 (Mo ), wfc  2 (l=0 j=0.5 m_j=-0.5)
     state #   4: atom   1 (Mo ), wfc  2 (l=0 j=0.5 m_j= 0.5)
     state #   5: atom   1 (Mo ), wfc  3 (l=1 j=0.5 m_j=-0.5)
     state #   6: atom   1 (Mo ), wfc  3 (l=1 j=0.5 m_j= 0.5)
     state #   7: atom   1 (Mo ), wfc  4 (l=1 j=1.5 m_j=-1.5)
     state #   8: atom   1 (Mo ), wfc  4 (l=1 j=1.5 m_j=-0.5)
     state #   9: atom   1 (Mo ), wfc  4 (l=1 j=1.5 m_j= 0.5)
     state #  10: atom   1 (Mo ), wfc  4 (l=1 j=1.5 m_j= 1.5)
     state #  11: atom   1 (Mo ), wfc  5 (l=1 j=0.5 m_j=-0.5)
     state #  12: atom   1 (Mo ), wfc  5 (l=1 j=0.5 m_j= 0.5)
     state #  13: atom   1 (Mo ), wfc  6 (l=1 j=1.5 m_j=-1.5)
     state #  14: atom   1 (Mo ), wfc  6 (l=1 j=1.5 m_j=-0.5)
     state #  15: atom   1 (Mo ), wfc  6 (l=1 j=1.5 m_j= 0.5)
     state #  16: atom   1 (Mo ), wfc  6 (l=1 j=1.5 m_j= 1.5)
     state #  17: atom   1 (Mo ), wfc  7 (l=2 j=1.5 m_j=-1.5)
     state #  18: atom   1 (Mo ), wfc  7 (l=2 j=1.5 m_j=-0.5)
     state #  19: atom   1 (Mo ), wfc  7 (l=2 j=1.5 m_j= 0.5)
     state #  20: atom   1 (Mo ), wfc  7 (l=2 j=1.5 m_j= 1.5)
     state #  21: atom   1 (Mo ), wfc  8 (l=2 j=2.5 m_j=-2.5)
     state #  22: atom   1 (Mo ), wfc  8 (l=2 j=2.5 m_j=-1.5)
     state #  23: atom   1 (Mo ), wfc  8 (l=2 j=2.5 m_j=-0.5)
     state #  24: atom   1 (Mo ), wfc  8 (l=2 j=2.5 m_j= 0.5)
     state #  25: atom   1 (Mo ), wfc  8 (l=2 j=2.5 m_j= 1.5)
     state #  26: atom   1 (Mo ), wfc  8 (l=2 j=2.5 m_j= 2.5)
     state #  27: atom   2 (S  ), wfc  1 (l=0 j=0.5 m_j=-0.5)
     state #  28: atom   2 (S  ), wfc  1 (l=0 j=0.5 m_j= 0.5)
     state #  29: atom   2 (S  ), wfc  2 (l=1 j=0.5 m_j=-0.5)
     state #  30: atom   2 (S  ), wfc  2 (l=1 j=0.5 m_j= 0.5)
     state #  31: atom   2 (S  ), wfc  3 (l=1 j=1.5 m_j=-1.5)
     state #  32: atom   2 (S  ), wfc  3 (l=1 j=1.5 m_j=-0.5)
     state #  33: atom   2 (S  ), wfc  3 (l=1 j=1.5 m_j= 0.5)
     state #  34: atom   2 (S  ), wfc  3 (l=1 j=1.5 m_j= 1.5)
     state #  35: atom   3 (S  ), wfc  1 (l=0 j=0.5 m_j=-0.5)
     state #  36: atom   3 (S  ), wfc  1 (l=0 j=0.5 m_j= 0.5)
     state #  37: atom   3 (S  ), wfc  2 (l=1 j=0.5 m_j=-0.5)
     state #  38: atom   3 (S  ), wfc  2 (l=1 j=0.5 m_j= 0.5)
     state #  39: atom   3 (S  ), wfc  3 (l=1 j=1.5 m_j=-1.5)
     state #  40: atom   3 (S  ), wfc  3 (l=1 j=1.5 m_j=-0.5)
     state #  41: atom   3 (S  ), wfc  3 (l=1 j=1.5 m_j= 0.5)
     state #  42: atom   3 (S  ), wfc  3 (l=1 j=1.5 m_j= 1.5)

 k =   0.0250000000  0.0433012702 -0.0876501565
==== e(   1) =   -61.38331 eV ==== 
     psi = 0.475*[#   1]+0.475*[#   2]+0.007*[#   3]+0.007*[#   4]+0.003*[#  40]
          +0.003*[#  41]+0.003*[#  13]+0.003*[#  16]+0.003*[#  32]+0.003*[#  33]
          +0.002*[#  11]+0.002*[#  12]+0.002*[#  29]+0.002*[#  30]+0.001*[#  37]
          +0.001*[#  38]
    |psi|^2 = 1.000
==== e(   2) =   -61.38331 eV ==== 
     psi = 0.475*[#   1]+0.475*[#   2]+0.007*[#   3]+0.007*[#   4]+0.003*[#  32]
          +0.003*[#  33]+0.003*[#  13]+0.003*[#  16]+0.003*[#  40]+0.003*[#  41]
          +0.002*[#  11]+0.002*[#  12]+0.002*[#  37]+0.002*[#  38]+0.001*[#  29]
          +0.001*[#  30]
    |psi|^2 = 1.000
==== e(   3) =   -37.19786 eV ==== 
     psi = 0.484*[#   5]+0.484*[#   6]+0.007*[#  14]+0.007*[#  15]+0.003*[#  11]
          +0.003*[#  12]+0.001*[#  29]+0.001*[#  30]+0.001*[#  37]+0.001*[#  38]
          
    |psi|^2 = 1.000
==== e(   4) =   -37.19783 eV ==== 
     psi = 0.484*[#   5]+0.484*[#   6]+0.007*[#  14]+0.007*[#  15]+0.003*[#  11]
          +0.003*[#  12]+0.001*[#  29]+0.001*[#  30]+0.001*[#  37]+0.001*[#  38]
          
    |psi|^2 = 1.000
==== e(   5) =   -34.72757 eV ==== 
     psi = 0.484*[#   8]+0.484*[#   9]+0.008*[#  11]+0.008*[#  12]+0.002*[#  27]
          +0.002*[#  28]+0.002*[#  32]+0.002*[#  33]+0.002*[#  35]+0.002*[#  36]
          +0.002*[#  40]+0.002*[#  41]
    |psi|^2 = 1.000
==== e(   6) =   -34.72754 eV ==== 
     psi = 0.484*[#   8]+0.484*[#   9]+0.008*[#  11]+0.008*[#  12]+0.002*[#  27]
          +0.002*[#  28]+0.002*[#  32]+0.002*[#  33]+0.002*[#  35]+0.002*[#  36]
          +0.002*[#  40]+0.002*[#  41]
    |psi|^2 = 1.000
==== e(   7) =   -34.57366 eV ==== 
     psi = 0.483*[#   7]+0.483*[#  10]+0.015*[#  13]+0.015*[#  16]
    |psi|^2 = 1.000
==== e(   8) =   -34.57358 eV ==== 
     psi = 0.483*[#   7]+0.483*[#  10]+0.015*[#  13]+0.015*[#  16]
    |psi|^2 = 1.000
==== e(   9) =   -14.69917 eV ==== 
     psi = 0.189*[#   3]+0.189*[#   4]+0.141*[#  27]+0.141*[#  28]+0.141*[#  35]
          +0.141*[#  36]+0.010*[#   1]+0.010*[#   2]+0.005*[#  13]+0.005*[#  16]
          +0.004*[#  11]+0.004*[#  12]+0.002*[#  32]+0.002*[#  33]+0.002*[#  40]
          +0.002*[#  41]+0.002*[#  14]+0.002*[#  15]+0.001*[#  29]+0.001*[#  30]
          +0.001*[#  37]+0.001*[#  38]
    |psi|^2 = 0.999
==== e(  10) =   -14.69911 eV ==== 
     psi = 0.189*[#   3]+0.189*[#   4]+0.141*[#  27]+0.141*[#  28]+0.141*[#  35]
          +0.141*[#  36]+0.010*[#   1]+0.010*[#   2]+0.006*[#  13]+0.006*[#  16]
          +0.004*[#  11]+0.004*[#  12]+0.002*[#  32]+0.002*[#  33]+0.002*[#  40]
          +0.002*[#  41]+0.002*[#  14]+0.002*[#  15]+0.001*[#  29]+0.001*[#  30]
          +0.001*[#  37]+0.001*[#  38]
    |psi|^2 = 0.999
==== e(  11) =   -13.39530 eV ==== 
     psi = 0.152*[#  27]+0.152*[#  28]+0.152*[#  35]+0.152*[#  36]+0.120*[#  14]
          +0.120*[#  15]+0.063*[#  11]+0.063*[#  12]+0.007*[#   8]+0.007*[#   9]
          +0.003*[#   5]+0.003*[#   6]
    |psi|^2 = 0.998
==== e(  12) =   -13.39530 eV ==== 
     psi = 0.152*[#  27]+0.152*[#  28]+0.152*[#  35]+0.152*[#  36]+0.120*[#  14]
          +0.120*[#  15]+0.063*[#  11]+0.063*[#  12]+0.007*[#   8]+0.007*[#   9]
          +0.003*[#   5]+0.003*[#   6]
    |psi|^2 = 0.998
==== e(  13) =    -6.28727 eV ==== 
     psi = 0.100*[#  23]+0.100*[#  24]+0.088*[#  32]+0.088*[#  33]+0.088*[#  40]
          +0.088*[#  41]+0.068*[#  18]+0.068*[#  19]+0.045*[#  29]+0.045*[#  30]
          +0.045*[#  37]+0.045*[#  38]+0.017*[#  27]+0.017*[#  28]+0.017*[#  35]
          +0.017*[#  36]+0.014*[#   3]+0.014*[#   4]+0.010*[#   1]+0.010*[#   2]
          
    |psi|^2 = 0.986
==== e(  14) =    -6.28720 eV ==== 
     psi = 0.100*[#  23]+0.100*[#  24]+0.088*[#  32]+0.088*[#  33]+0.088*[#  40]
          +0.088*[#  41]+0.068*[#  18]+0.068*[#  19]+0.045*[#  29]+0.045*[#  30]
          +0.045*[#  37]+0.045*[#  38]+0.017*[#  27]+0.017*[#  28]+0.017*[#  35]
          +0.017*[#  36]+0.014*[#   3]+0.014*[#   4]+0.010*[#   1]+0.010*[#   2]
          
    |psi|^2 = 0.986
==== e(  15) =    -3.38227 eV ==== 
     psi = 0.218*[#  17]+0.218*[#  20]+0.070*[#  21]+0.070*[#  26]+0.060*[#  31]
          +0.060*[#  34]+0.060*[#  39]+0.060*[#  42]+0.044*[#  22]+0.044*[#  25]
          +0.013*[#  29]+0.013*[#  30]+0.013*[#  37]+0.013*[#  38]+0.005*[#  32]
          +0.005*[#  33]+0.005*[#  40]+0.005*[#  41]+0.002*[#   3]+0.002*[#   4]
          
    |psi|^2 = 0.991
==== e(  16) =    -3.37814 eV ==== 
     psi = 0.220*[#  17]+0.220*[#  20]+0.070*[#  21]+0.070*[#  26]+0.062*[#  31]
          +0.062*[#  34]+0.062*[#  39]+0.062*[#  42]+0.043*[#  22]+0.043*[#  25]
          +0.013*[#  29]+0.013*[#  30]+0.013*[#  37]+0.013*[#  38]+0.004*[#  32]
          +0.004*[#  33]+0.004*[#  40]+0.004*[#  41]+0.002*[#   3]+0.002*[#   4]
          +0.001*[#  13]+0.001*[#  16]
    |psi|^2 = 0.991
==== e(  17) =    -3.26749 eV ==== 
     psi = 0.256*[#  21]+0.256*[#  26]+0.061*[#  17]+0.061*[#  20]+0.049*[#  29]
          +0.049*[#  30]+0.049*[#  37]+0.049*[#  38]+0.017*[#  32]+0.017*[#  33]
          +0.017*[#  40]+0.017*[#  41]+0.016*[#  31]+0.016*[#  34]+0.016*[#  39]
          +0.016*[#  42]+0.013*[#  22]+0.013*[#  25]
    |psi|^2 = 0.992
==== e(  18) =    -3.26329 eV ==== 
     psi = 0.255*[#  21]+0.255*[#  26]+0.063*[#  17]+0.063*[#  20]+0.048*[#  29]
          +0.048*[#  30]+0.048*[#  37]+0.048*[#  38]+0.018*[#  31]+0.018*[#  34]
          +0.018*[#  39]+0.018*[#  42]+0.016*[#  32]+0.016*[#  33]+0.016*[#  40]
          +0.016*[#  41]+0.011*[#  22]+0.011*[#  25]+0.001*[#  13]+0.001*[#  16]
          
    |psi|^2 = 0.992
==== e(  19) =    -2.65725 eV ==== 
     psi = 0.119*[#  40]+0.119*[#  41]+0.110*[#  32]+0.110*[#  33]+0.068*[#  29]
          +0.068*[#  30]+0.059*[#  37]+0.059*[#  38]+0.043*[#  22]+0.043*[#  25]
          +0.037*[#  18]+0.037*[#  19]+0.021*[#  23]+0.021*[#  24]+0.009*[#  31]
          +0.009*[#  34]+0.008*[#  39]+0.008*[#  42]+0.008*[#  14]+0.008*[#  15]
          +0.008*[#  17]+0.008*[#  20]+0.003*[#  11]+0.003*[#  12]+0.001*[#   8]
          +0.001*[#   9]
    |psi|^2 = 0.994
==== e(  20) =    -2.65709 eV ==== 
     psi = 0.116*[#  32]+0.116*[#  33]+0.107*[#  40]+0.107*[#  41]+0.063*[#  37]
          +0.063*[#  38]+0.054*[#  29]+0.054*[#  30]+0.045*[#  18]+0.045*[#  19]
          +0.032*[#  22]+0.032*[#  25]+0.026*[#  23]+0.026*[#  24]+0.016*[#  31]
          +0.016*[#  34]+0.017*[#  39]+0.017*[#  42]+0.008*[#  14]+0.008*[#  15]
          +0.006*[#  17]+0.006*[#  20]+0.003*[#  11]+0.003*[#  12]+0.001*[#   8]
          +0.001*[#   9]
    |psi|^2 = 0.994
==== e(  21) =    -2.23306 eV ==== 
     psi = 0.107*[#  22]+0.107*[#  25]+0.098*[#  18]+0.098*[#  19]+0.056*[#  29]
          +0.056*[#  30]+0.056*[#  37]+0.056*[#  38]+0.052*[#  23]+0.052*[#  24]
          +0.026*[#  32]+0.026*[#  33]+0.026*[#  40]+0.026*[#  41]+0.025*[#  31]
          +0.025*[#  34]+0.025*[#  39]+0.025*[#  42]+0.022*[#  17]+0.022*[#  20]
          
    |psi|^2 = 0.989
==== e(  22) =    -2.22772 eV ==== 
     psi = 0.118*[#  18]+0.118*[#  19]+0.084*[#  22]+0.084*[#  25]+0.063*[#  23]
          +0.063*[#  24]+0.057*[#  31]+0.057*[#  34]+0.057*[#  39]+0.057*[#  42]
          +0.034*[#  29]+0.034*[#  30]+0.034*[#  37]+0.034*[#  38]+0.017*[#  17]
          +0.017*[#  20]+0.015*[#  32]+0.015*[#  33]+0.015*[#  40]+0.015*[#  41]
          
    |psi|^2 = 0.989
==== e(  23) =    -2.01202 eV ==== 
     psi = 0.106*[#  22]+0.106*[#  25]+0.065*[#  40]+0.065*[#  41]+0.065*[#  32]
          +0.065*[#  33]+0.053*[#  29]+0.053*[#  30]+0.053*[#  37]+0.053*[#  38]
          +0.041*[#  31]+0.041*[#  34]+0.041*[#  39]+0.041*[#  42]+0.031*[#  18]
          +0.031*[#  19]+0.022*[#  17]+0.022*[#  20]+0.015*[#  23]+0.015*[#  24]
          +0.001*[#   8]+0.001*[#   9]+0.001*[#  14]+0.001*[#  15]
    |psi|^2 = 0.988
==== e(  24) =    -2.00642 eV ==== 
     psi = 0.096*[#  22]+0.096*[#  25]+0.064*[#  31]+0.064*[#  34]+0.064*[#  39]
          +0.064*[#  42]+0.057*[#  32]+0.057*[#  33]+0.056*[#  40]+0.056*[#  41]
          +0.041*[#  18]+0.041*[#  19]+0.036*[#  37]+0.036*[#  38]+0.036*[#  29]
          +0.036*[#  30]+0.021*[#  23]+0.021*[#  24]+0.020*[#  17]+0.020*[#  20]
          +0.001*[#   8]+0.001*[#   9]+0.001*[#  14]+0.001*[#  15]
    |psi|^2 = 0.988
==== e(  25) =    -0.72120 eV ==== 
     psi = 0.189*[#  23]+0.189*[#  24]+0.108*[#  18]+0.108*[#  19]+0.066*[#  32]
          +0.066*[#  33]+0.064*[#  40]+0.064*[#  41]+0.024*[#  37]+0.024*[#  38]
          +0.023*[#  29]+0.023*[#  30]+0.003*[#  27]+0.003*[#  28]+0.003*[#  35]
          +0.003*[#  36]+0.001*[#  13]+0.001*[#  16]
    |psi|^2 = 0.971
==== e(  26) =    -0.72115 eV ==== 
     psi = 0.188*[#  23]+0.188*[#  24]+0.108*[#  18]+0.108*[#  19]+0.066*[#  40]
          +0.066*[#  41]+0.064*[#  32]+0.064*[#  33]+0.024*[#  29]+0.024*[#  30]
          +0.023*[#  37]+0.023*[#  38]+0.003*[#  27]+0.003*[#  28]+0.003*[#  35]
          +0.003*[#  36]+0.001*[#  13]+0.001*[#  16]+0.001*[#  21]+0.001*[#  26]
          
    |psi|^2 = 0.971
==== e(  27) =     2.01761 eV ==== 
     psi = 0.109*[#  18]+0.109*[#  19]+0.080*[#  23]+0.080*[#  24]+0.073*[#  29]
          +0.073*[#  30]+0.073*[#  37]+0.073*[#  38]+0.034*[#  32]+0.034*[#  33]
          +0.034*[#  40]+0.034*[#  41]+0.030*[#  31]+0.030*[#  34]+0.029*[#  39]
          +0.029*[#  42]+0.011*[#  22]+0.011*[#  25]+0.004*[#  17]+0.004*[#  20]
          +0.003*[#  27]+0.003*[#  28]+0.003*[#  35]+0.003*[#  36]
    |psi|^2 = 0.972
==== e(  28) =     2.02884 eV ==== 
     psi = 0.078*[#  18]+0.078*[#  19]+0.075*[#  29]+0.075*[#  30]+0.075*[#  37]
          +0.075*[#  38]+0.054*[#  23]+0.054*[#  24]+0.048*[#  22]+0.048*[#  25]
          +0.038*[#  32]+0.038*[#  33]+0.038*[#  40]+0.038*[#  41]+0.025*[#  17]
          +0.025*[#  20]+0.023*[#  31]+0.023*[#  34]+0.023*[#  39]+0.023*[#  42]
          +0.003*[#  27]+0.003*[#  28]+0.003*[#  35]+0.003*[#  36]
    |psi|^2 = 0.972
==== e(  29) =     2.14277 eV ==== 
     psi = 0.118*[#  31]+0.118*[#  34]+0.118*[#  39]+0.118*[#  42]+0.071*[#  22]
          +0.071*[#  25]+0.056*[#  17]+0.056*[#  20]+0.038*[#  18]+0.038*[#  19]
          +0.031*[#  23]+0.031*[#  24]+0.019*[#  29]+0.019*[#  30]+0.019*[#  37]
          +0.019*[#  38]+0.007*[#  32]+0.007*[#  33]+0.007*[#  40]+0.007*[#  41]
          
    |psi|^2 = 0.973
==== e(  30) =     2.15037 eV ==== 
     psi = 0.115*[#  31]+0.115*[#  34]+0.115*[#  39]+0.115*[#  42]+0.094*[#  22]
          +0.094*[#  25]+0.086*[#  17]+0.086*[#  20]+0.019*[#  29]+0.019*[#  30]
          +0.019*[#  37]+0.019*[#  38]+0.012*[#  32]+0.012*[#  33]+0.012*[#  40]
          +0.012*[#  41]+0.009*[#  18]+0.009*[#  19]+0.005*[#  23]+0.005*[#  24]
          
    |psi|^2 = 0.974
==== e(  31) =     2.24797 eV ==== 
     psi = 0.081*[#  21]+0.081*[#  26]+0.077*[#  39]+0.077*[#  42]+0.077*[#  31]
          +0.077*[#  34]+0.054*[#  29]+0.054*[#  30]+0.054*[#  37]+0.054*[#  38]
          +0.045*[#  22]+0.045*[#  25]+0.036*[#  17]+0.036*[#  20]+0.028*[#  32]
          +0.028*[#  33]+0.028*[#  40]+0.028*[#  41]+0.002*[#   3]+0.002*[#   4]
          +0.002*[#  11]+0.002*[#  12]+0.001*[#  27]+0.001*[#  28]+0.001*[#  35]
          +0.001*[#  36]+0.001*[#  14]+0.001*[#  15]+0.001*[#  18]+0.001*[#  19]
          
    |psi|^2 = 0.985
==== e(  32) =     2.25808 eV ==== 
     psi = 0.092*[#  21]+0.092*[#  26]+0.070*[#  39]+0.070*[#  42]+0.070*[#  31]
          +0.070*[#  34]+0.059*[#  37]+0.059*[#  38]+0.058*[#  29]+0.058*[#  30]
          +0.046*[#  22]+0.046*[#  25]+0.030*[#  32]+0.030*[#  33]+0.030*[#  40]
          +0.030*[#  41]+0.026*[#  17]+0.026*[#  20]+0.002*[#   3]+0.002*[#   4]
          +0.002*[#  13]+0.002*[#  16]+0.002*[#  23]+0.002*[#  24]+0.001*[#  27]
          +0.001*[#  28]+0.001*[#  35]+0.001*[#  36]+0.001*[#  11]+0.001*[#  12]
          
    |psi|^2 = 0.985
==== e(  33) =     2.30310 eV ==== 
     psi = 0.089*[#  39]+0.089*[#  42]+0.089*[#  31]+0.089*[#  34]+0.071*[#  21]
          +0.071*[#  26]+0.049*[#  29]+0.049*[#  30]+0.049*[#  37]+0.049*[#  38]
          +0.045*[#  22]+0.045*[#  25]+0.045*[#  17]+0.045*[#  20]+0.025*[#  32]
          +0.025*[#  33]+0.025*[#  40]+0.025*[#  41]+0.003*[#  11]+0.003*[#  12]
          +0.002*[#  13]+0.002*[#  16]+0.002*[#  14]+0.002*[#  15]
    |psi|^2 = 0.989
==== e(  34) =     2.31044 eV ==== 
     psi = 0.085*[#  39]+0.085*[#  42]+0.085*[#  31]+0.085*[#  34]+0.082*[#  21]
          +0.082*[#  26]+0.051*[#  37]+0.051*[#  38]+0.051*[#  29]+0.051*[#  30]
          +0.044*[#  17]+0.044*[#  20]+0.034*[#  22]+0.034*[#  25]+0.027*[#  32]
          +0.027*[#  33]+0.028*[#  40]+0.028*[#  41]+0.005*[#  13]+0.005*[#  16]
          +0.002*[#  11]+0.002*[#  12]
    |psi|^2 = 0.990

 k =   0.0250000000  0.1010362972 -0.0876501565
==== e(   1) =   -61.38103 eV ==== 
     psi = 0.466*[#   1]+0.466*[#   2]+0.010*[#  13]+0.010*[#  16]+0.006*[#  11]
          +0.006*[#  12]+0.003*[#  14]+0.003*[#  15]+0.003*[#  32]+0.003*[#  33]
          +0.003*[#  40]+0.003*[#  41]+0.003*[#   3]+0.003*[#   4]+0.002*[#  29]
          +0.002*[#  30]+0.002*[#  37]+0.002*[#  38]
    |psi|^2 = 1.000
==== e(   2) =   -61.38103 eV ==== 
     psi = 0.466*[#   1]+0.466*[#   2]+0.010*[#  13]+0.010*[#  16]+0.006*[#  11]
          +0.006*[#  12]+0.003*[#  14]+0.003*[#  15]+0.003*[#  32]+0.003*[#  33]
          +0.003*[#  40]+0.003*[#  41]+0.003*[#   3]+0.003*[#   4]+0.001*[#  29]
          +0.001*[#  30]+0.002*[#  37]+0.002*[#  38]
    |psi|^2 = 1.000
==== e(   3) =   -37.20411 eV ==== 
     psi = 0.486*[#   5]+0.486*[#   6]+0.006*[#  14]+0.006*[#  15]+0.002*[#  11]
          +0.002*[#  12]
    |psi|^2 = 1.000
==== e(   4) =   -37.20391 eV ==== 
     psi = 0.486*[#   5]+0.486*[#   6]+0.006*[#  14]+0.006*[#  15]+0.002*[#  11]
          +0.002*[#  12]
    |psi|^2 = 1.000
==== e(   5) =   -34.73042 eV ==== 
     psi = 0.483*[#   8]+0.483*[#   9]+0.007*[#  11]+0.007*[#  12]+0.002*[#  27]
          +0.002*[#  35]+0.002*[#  36]+0.001*[#   7]+0.001*[#  10]+0.002*[#  28]
          +0.001*[#  32]+0.001*[#  33]+0.001*[#  40]+0.001*[#  41]
    |psi|^2 = 1.000
==== e(   6) =   -34.73025 eV ==== 
     psi = 0.483*[#   8]+0.483*[#   9]+0.007*[#  11]+0.007*[#  12]+0.002*[#  27]
          +0.002*[#  28]+0.001*[#   7]+0.001*[#  10]+0.001*[#  32]+0.001*[#  33]
          +0.002*[#  35]+0.002*[#  36]+0.001*[#  40]+0.001*[#  41]
    |psi|^2 = 1.000
==== e(   7) =   -34.58888 eV ==== 
     psi = 0.483*[#   7]+0.483*[#  10]+0.011*[#  13]+0.011*[#  16]+0.002*[#   3]
          +0.002*[#   4]+0.001*[#   8]+0.001*[#   9]
    |psi|^2 = 1.000
==== e(   8) =   -34.58843 eV ==== 
     psi = 0.483*[#   7]+0.483*[#  10]+0.011*[#  13]+0.011*[#  16]+0.002*[#   3]
          +0.002*[#   4]+0.001*[#   8]+0.001*[#   9]
    |psi|^2 = 1.000
==== e(   9) =   -14.60665 eV ==== 
     psi = 0.163*[#   3]+0.163*[#   4]+0.138*[#  27]+0.138*[#  28]+0.138*[#  35]
          +0.138*[#  36]+0.019*[#  13]+0.019*[#  16]+0.014*[#  11]+0.014*[#  12]
          +0.011*[#   1]+0.011*[#   2]+0.006*[#  14]+0.006*[#  15]+0.002*[#  32]
          +0.002*[#  33]+0.002*[#  40]+0.002*[#  41]+0.001*[#  29]+0.001*[#  30]
          +0.001*[#  37]+0.001*[#  38]
    |psi|^2 = 0.999
==== e(  10) =   -14.60630 eV ==== 
     psi = 0.163*[#   3]+0.163*[#   4]+0.138*[#  27]+0.138*[#  28]+0.138*[#  35]
          +0.138*[#  36]+0.021*[#  13]+0.021*[#  16]+0.013*[#  11]+0.013*[#  12]
          +0.011*[#   1]+0.011*[#   2]+0.006*[#  14]+0.006*[#  15]+0.002*[#  32]
          +0.002*[#  33]+0.002*[#  40]+0.002*[#  41]+0.001*[#  29]+0.001*[#  30]
          +0.001*[#  37]+0.001*[#  38]
    |psi|^2 = 0.999
==== e(  11) =   -13.35701 eV ==== 
     psi = 0.155*[#  27]+0.155*[#  28]+0.154*[#  35]+0.154*[#  36]+0.114*[#  14]
          +0.114*[#  15]+0.059*[#  11]+0.059*[#  12]+0.007*[#   8]+0.007*[#   9]
          +0.002*[#   5]+0.002*[#   6]+0.002*[#  22]+0.002*[#  25]+0.002*[#  18]
          +0.002*[#  19]+0.001*[#  23]+0.001*[#  24]
    |psi|^2 = 0.998
==== e(  12) =   -13.35698 eV ==== 
     psi = 0.154*[#  27]+0.154*[#  28]+0.155*[#  35]+0.155*[#  36]+0.114*[#  14]
          +0.114*[#  15]+0.059*[#  11]+0.059*[#  12]+0.007*[#   8]+0.007*[#   9]
          +0.003*[#  22]+0.003*[#  25]+0.002*[#   5]+0.002*[#   6]+0.002*[#  18]
          +0.002*[#  19]+0.001*[#  23]+0.001*[#  24]
    |psi|^2 = 0.998
==== e(  13) =    -6.18227 eV ==== 
     psi = 0.097*[#  23]+0.097*[#  24]+0.089*[#  32]+0.089*[#  33]+0.089*[#  40]
          +0.089*[#  41]+0.066*[#  18]+0.066*[#  19]+0.045*[#  29]+0.045*[#  30]
          +0.045*[#  37]+0.045*[#  38]+0.016*[#  27]+0.016*[#  28]+0.016*[#  35]
          +0.016*[#  36]+0.013*[#   3]+0.013*[#   4]+0.009*[#   1]+0.009*[#   2]
          +0.003*[#  21]+0.003*[#  26]+0.001*[#  17]+0.001*[#  20]
    |psi|^2 = 0.986
==== e(  14) =    -6.18186 eV ==== 
     psi = 0.097*[#  23]+0.097*[#  24]+0.089*[#  32]+0.089*[#  33]+0.089*[#  40]
          +0.089*[#  41]+0.066*[#  18]+0.066*[#  19]+0.045*[#  29]+0.045*[#  30]
          +0.045*[#  37]+0.045*[#  38]+0.016*[#  27]+0.016*[#  28]+0.016*[#  35]
          +0.016*[#  36]+0.013*[#   3]+0.013*[#   4]+0.009*[#   1]+0.009*[#   2]
          +0.002*[#  17]+0.002*[#  20]+0.001*[#  21]+0.001*[#  26]
    |psi|^2 = 0.986
==== e(  15) =    -3.57560 eV ==== 
     psi = 0.156*[#  17]+0.156*[#  20]+0.122*[#  21]+0.122*[#  26]+0.046*[#  31]
          +0.046*[#  34]+0.046*[#  39]+0.046*[#  42]+0.032*[#  22]+0.032*[#  25]
          +0.026*[#  29]+0.026*[#  30]+0.026*[#  37]+0.026*[#  38]+0.011*[#  32]
          +0.011*[#  33]+0.011*[#  40]+0.011*[#  41]+0.009*[#   3]+0.009*[#   4]
          +0.003*[#  27]+0.003*[#  28]+0.003*[#  35]+0.003*[#  36]
    |psi|^2 = 0.991
==== e(  16) =    -3.56935 eV ==== 
     psi = 0.148*[#  17]+0.148*[#  20]+0.133*[#  21]+0.133*[#  26]+0.047*[#  31]
          +0.047*[#  34]+0.047*[#  39]+0.047*[#  42]+0.029*[#  22]+0.029*[#  25]
          +0.026*[#  29]+0.026*[#  30]+0.026*[#  37]+0.026*[#  38]+0.010*[#  32]
          +0.010*[#  33]+0.010*[#  40]+0.010*[#  41]+0.009*[#   3]+0.009*[#   4]
          +0.003*[#  27]+0.003*[#  28]+0.003*[#  35]+0.003*[#  36]+0.001*[#  13]
          +0.001*[#  16]
    |psi|^2 = 0.991
==== e(  17) =    -3.18035 eV ==== 
     psi = 0.176*[#  21]+0.176*[#  26]+0.121*[#  17]+0.121*[#  20]+0.040*[#  29]
          +0.040*[#  30]+0.040*[#  37]+0.040*[#  38]+0.034*[#  31]+0.034*[#  34]
          +0.034*[#  39]+0.034*[#  42]+0.023*[#  22]+0.023*[#  25]+0.011*[#  32]
          +0.011*[#  33]+0.011*[#  40]+0.011*[#  41]+0.002*[#  11]+0.002*[#  12]
          +0.001*[#  14]+0.001*[#  15]
    |psi|^2 = 0.992
==== e(  18) =    -3.17519 eV ==== 
     psi = 0.183*[#  21]+0.183*[#  26]+0.121*[#  17]+0.121*[#  20]+0.045*[#  29]
          +0.045*[#  30]+0.045*[#  37]+0.045*[#  38]+0.034*[#  31]+0.034*[#  34]
          +0.034*[#  39]+0.034*[#  42]+0.013*[#  22]+0.013*[#  25]+0.007*[#  32]
          +0.007*[#  33]+0.007*[#  40]+0.007*[#  41]+0.003*[#  13]+0.003*[#  16]
          +0.001*[#  18]+0.001*[#  19]
    |psi|^2 = 0.992
==== e(  19) =    -2.99591 eV ==== 
     psi = 0.088*[#  40]+0.088*[#  41]+0.088*[#  32]+0.088*[#  33]+0.063*[#  18]
          +0.063*[#  19]+0.047*[#  22]+0.047*[#  25]+0.046*[#  29]+0.046*[#  30]
          +0.046*[#  37]+0.046*[#  38]+0.037*[#  23]+0.037*[#  24]+0.027*[#  31]
          +0.027*[#  34]+0.027*[#  39]+0.027*[#  42]+0.010*[#  14]+0.010*[#  15]
          +0.009*[#  17]+0.009*[#  20]+0.004*[#  11]+0.004*[#  12]+0.002*[#  21]
          +0.002*[#  26]
    |psi|^2 = 0.993
==== e(  20) =    -2.99270 eV ==== 
     psi = 0.096*[#  32]+0.096*[#  33]+0.095*[#  40]+0.095*[#  41]+0.077*[#  22]
          +0.077*[#  25]+0.050*[#  37]+0.050*[#  38]+0.050*[#  29]+0.050*[#  30]
          +0.046*[#  18]+0.046*[#  19]+0.027*[#  23]+0.027*[#  24]+0.015*[#  31]
          +0.015*[#  34]+0.015*[#  39]+0.015*[#  42]+0.010*[#  14]+0.010*[#  15]
          +0.006*[#  17]+0.006*[#  20]+0.005*[#  21]+0.005*[#  26]+0.004*[#  11]
          +0.004*[#  12]
    |psi|^2 = 0.993
==== e(  21) =    -2.38079 eV ==== 
     psi = 0.135*[#  22]+0.135*[#  25]+0.076*[#  18]+0.076*[#  19]+0.054*[#  29]
          +0.054*[#  30]+0.053*[#  37]+0.053*[#  38]+0.040*[#  23]+0.040*[#  24]
          +0.030*[#  31]+0.030*[#  34]+0.030*[#  39]+0.030*[#  42]+0.028*[#  17]
          +0.028*[#  20]+0.024*[#  32]+0.024*[#  33]+0.024*[#  40]+0.024*[#  41]
          
    |psi|^2 = 0.989
==== e(  22) =    -2.37492 eV ==== 
     psi = 0.106*[#  18]+0.106*[#  19]+0.099*[#  22]+0.099*[#  25]+0.074*[#  31]
          +0.074*[#  34]+0.074*[#  39]+0.074*[#  42]+0.058*[#  23]+0.058*[#  24]
          +0.023*[#  29]+0.023*[#  30]+0.023*[#  37]+0.023*[#  38]+0.020*[#  17]
          +0.020*[#  20]+0.009*[#  32]+0.009*[#  33]+0.009*[#  40]+0.009*[#  41]
          
    |psi|^2 = 0.989
==== e(  23) =    -1.81401 eV ==== 
     psi = 0.096*[#  40]+0.096*[#  41]+0.096*[#  32]+0.096*[#  33]+0.077*[#  29]
          +0.077*[#  30]+0.076*[#  37]+0.076*[#  38]+0.048*[#  22]+0.048*[#  25]
          +0.025*[#  18]+0.025*[#  19]+0.025*[#  31]+0.025*[#  34]+0.025*[#  39]
          +0.025*[#  42]+0.011*[#  23]+0.011*[#  24]+0.010*[#  17]+0.010*[#  20]
          +0.002*[#   8]+0.002*[#   9]
    |psi|^2 = 0.986
==== e(  24) =    -1.80436 eV ==== 
     psi = 0.085*[#  32]+0.085*[#  33]+0.085*[#  40]+0.085*[#  41]+0.058*[#  31]
          +0.058*[#  34]+0.058*[#  39]+0.058*[#  42]+0.052*[#  37]+0.052*[#  38]
          +0.052*[#  29]+0.052*[#  30]+0.044*[#  22]+0.044*[#  25]+0.031*[#  18]
          +0.031*[#  19]+0.014*[#  23]+0.014*[#  24]+0.009*[#  17]+0.009*[#  20]
          +0.002*[#   8]+0.002*[#   9]
    |psi|^2 = 0.986
==== e(  25) =    -0.76922 eV ==== 
     psi = 0.185*[#  23]+0.185*[#  24]+0.108*[#  18]+0.108*[#  19]+0.061*[#  32]
          +0.061*[#  33]+0.060*[#  40]+0.060*[#  41]+0.022*[#  37]+0.022*[#  38]
          +0.022*[#  29]+0.022*[#  30]+0.005*[#  17]+0.005*[#  20]+0.004*[#  27]
          +0.004*[#  28]+0.004*[#  35]+0.004*[#  36]+0.004*[#  13]+0.004*[#  16]
          +0.003*[#  21]+0.003*[#  26]+0.003*[#  31]+0.003*[#  34]+0.003*[#  39]
          +0.003*[#  42]+0.002*[#  11]+0.002*[#  12]+0.001*[#  14]+0.001*[#  15]
          +0.001*[#  22]+0.001*[#  25]
    |psi|^2 = 0.977
==== e(  26) =    -0.76873 eV ==== 
     psi = 0.184*[#  23]+0.184*[#  24]+0.109*[#  18]+0.109*[#  19]+0.061*[#  40]
          +0.061*[#  41]+0.060*[#  32]+0.060*[#  33]+0.023*[#  29]+0.023*[#  30]
          +0.023*[#  37]+0.023*[#  38]+0.006*[#  21]+0.006*[#  26]+0.004*[#  27]
          +0.004*[#  28]+0.004*[#  35]+0.004*[#  36]+0.004*[#  13]+0.004*[#  16]
          +0.002*[#  17]+0.002*[#  20]+0.002*[#  11]+0.002*[#  12]+0.002*[#  31]
          +0.002*[#  34]+0.002*[#  39]+0.002*[#  42]+0.001*[#  14]+0.001*[#  15]
          
    |psi|^2 = 0.977
==== e(  27) =     1.90025 eV ==== 
     psi = 0.106*[#  18]+0.106*[#  19]+0.074*[#  23]+0.074*[#  24]+0.048*[#  31]
          +0.048*[#  34]+0.048*[#  39]+0.048*[#  42]+0.045*[#  29]+0.045*[#  30]
          +0.045*[#  37]+0.045*[#  38]+0.027*[#  22]+0.027*[#  25]+0.025*[#  32]
          +0.025*[#  33]+0.025*[#  40]+0.025*[#  41]+0.017*[#  17]+0.017*[#  20]
          +0.010*[#  27]+0.010*[#  28]+0.010*[#  35]+0.010*[#  36]+0.003*[#  14]
          +0.003*[#  15]+0.002*[#  11]+0.002*[#  12]+0.001*[#  21]+0.001*[#  26]
          
    |psi|^2 = 0.971
==== e(  28) =     1.91482 eV ==== 
     psi = 0.077*[#  22]+0.077*[#  25]+0.073*[#  17]+0.073*[#  20]+0.054*[#  31]
          +0.054*[#  34]+0.054*[#  39]+0.054*[#  42]+0.043*[#  18]+0.043*[#  19]
          +0.036*[#  29]+0.036*[#  30]+0.035*[#  37]+0.035*[#  38]+0.031*[#  32]
          +0.031*[#  33]+0.031*[#  40]+0.031*[#  41]+0.021*[#  23]+0.021*[#  24]
          +0.010*[#  27]+0.010*[#  28]+0.010*[#  35]+0.010*[#  36]+0.005*[#  21]
          +0.005*[#  26]+0.003*[#  14]+0.003*[#  15]+0.002*[#  11]+0.002*[#  12]
          
    |psi|^2 = 0.972
==== e(  29) =     2.00891 eV ==== 
     psi = 0.085*[#  31]+0.085*[#  34]+0.083*[#  39]+0.083*[#  42]+0.074*[#  21]
          +0.074*[#  26]+0.072*[#  17]+0.072*[#  20]+0.043*[#  29]+0.043*[#  30]
          +0.040*[#  37]+0.040*[#  38]+0.025*[#  40]+0.025*[#  41]+0.024*[#  32]
          +0.024*[#  33]+0.015*[#  22]+0.015*[#  25]+0.008*[#  23]+0.008*[#  24]
          +0.005*[#   3]+0.005*[#   4]+0.005*[#  27]+0.005*[#  28]+0.004*[#  35]
          +0.004*[#  36]+0.004*[#  18]+0.004*[#  19]
    |psi|^2 = 0.975
==== e(  30) =     2.01043 eV ==== 
     psi = 0.074*[#  21]+0.074*[#  26]+0.068*[#  39]+0.068*[#  42]+0.065*[#  31]
          +0.065*[#  34]+0.060*[#  37]+0.060*[#  38]+0.056*[#  29]+0.056*[#  30]
          +0.054*[#  22]+0.054*[#  25]+0.035*[#  17]+0.035*[#  20]+0.021*[#  32]
          +0.021*[#  33]+0.020*[#  40]+0.020*[#  41]+0.015*[#  23]+0.015*[#  24]
          +0.005*[#  35]+0.005*[#  36]+0.005*[#  27]+0.005*[#  28]+0.005*[#   3]
          +0.005*[#   4]+0.003*[#  18]+0.003*[#  19]+0.001*[#  14]+0.001*[#  15]
          
    |psi|^2 = 0.974
==== e(  31) =     2.18893 eV ==== 
     psi = 0.094*[#  21]+0.094*[#  26]+0.069*[#  17]+0.069*[#  20]+0.066*[#  31]
          +0.066*[#  34]+0.066*[#  39]+0.066*[#  42]+0.060*[#  29]+0.060*[#  30]
          +0.060*[#  37]+0.060*[#  38]+0.032*[#  32]+0.032*[#  33]+0.032*[#  40]
          +0.032*[#  41]+0.004*[#  11]+0.004*[#  12]+0.003*[#  22]+0.003*[#  25]
          +0.002*[#  13]+0.002*[#  16]+0.002*[#  23]+0.002*[#  24]+0.002*[#  14]
          +0.002*[#  15]+0.001*[#  18]+0.001*[#  19]
    |psi|^2 = 0.987
==== e(  32) =     2.20446 eV ==== 
     psi = 0.092*[#  21]+0.092*[#  26]+0.075*[#  31]+0.075*[#  34]+0.075*[#  39]
          +0.075*[#  42]+0.057*[#  17]+0.057*[#  20]+0.054*[#  29]+0.054*[#  30]
          +0.054*[#  37]+0.054*[#  38]+0.030*[#  32]+0.030*[#  33]+0.030*[#  40]
          +0.030*[#  41]+0.012*[#  22]+0.012*[#  25]+0.005*[#  13]+0.005*[#  16]
          +0.004*[#  18]+0.004*[#  19]+0.004*[#  23]+0.004*[#  24]+0.002*[#  11]
          +0.002*[#  12]
    |psi|^2 = 0.988
==== e(  33) =     2.29551 eV ==== 
     psi = 0.086*[#  39]+0.086*[#  42]+0.086*[#  31]+0.086*[#  34]+0.075*[#  18]
          +0.075*[#  19]+0.070*[#  22]+0.070*[#  25]+0.053*[#  23]+0.053*[#  24]
          +0.038*[#  37]+0.038*[#  38]+0.038*[#  29]+0.038*[#  30]+0.018*[#  32]
          +0.018*[#  33]+0.018*[#  40]+0.018*[#  41]+0.004*[#  17]+0.004*[#  20]
          +0.002*[#  21]+0.002*[#  26]
    |psi|^2 = 0.975
==== e(  34) =     2.32286 eV ==== 
     psi = 0.160*[#  22]+0.160*[#  25]+0.082*[#  39]+0.082*[#  42]+0.082*[#  31]
          +0.082*[#  34]+0.041*[#  37]+0.041*[#  38]+0.040*[#  29]+0.040*[#  30]
          +0.019*[#  18]+0.019*[#  19]+0.018*[#  32]+0.018*[#  33]+0.018*[#  40]
          +0.018*[#  41]+0.014*[#  23]+0.014*[#  24]+0.011*[#  17]+0.011*[#  20]
          +0.001*[#  21]+0.001*[#  26]
    |psi|^2 = 0.974

 k =   0.0250000000  0.1587713241 -0.0876501565
==== e(   1) =   -61.37715 eV ==== 
     psi = 0.457*[#   1]+0.457*[#   2]+0.017*[#  13]+0.017*[#  16]+0.011*[#  11]
          +0.011*[#  12]+0.005*[#  14]+0.005*[#  15]+0.003*[#  32]+0.003*[#  33]
          +0.003*[#  40]+0.003*[#  41]+0.002*[#  29]+0.002*[#  30]+0.001*[#  37]
          +0.001*[#  38]
    |psi|^2 = 1.000
==== e(   2) =   -61.37715 eV ==== 
     psi = 0.457*[#   1]+0.457*[#   2]+0.017*[#  13]+0.017*[#  16]+0.011*[#  11]
          +0.011*[#  12]+0.005*[#  14]+0.005*[#  15]+0.003*[#  32]+0.003*[#  33]
          +0.003*[#  40]+0.003*[#  41]+0.001*[#  29]+0.001*[#  30]+0.001*[#  37]
          +0.001*[#  38]
    |psi|^2 = 1.000
==== e(   3) =   -37.21488 eV ==== 
     psi = 0.487*[#   5]+0.487*[#   6]+0.004*[#  14]+0.004*[#  15]+0.002*[#   3]
          +0.002*[#   4]+0.001*[#  11]+0.001*[#  12]
    |psi|^2 = 1.000
==== e(   4) =   -37.21440 eV ==== 
     psi = 0.487*[#   5]+0.487*[#   6]+0.004*[#  14]+0.004*[#  15]+0.002*[#   3]
          +0.002*[#   4]+0.001*[#  11]+0.001*[#  12]
    |psi|^2 = 1.000
==== e(   5) =   -34.73645 eV ==== 
     psi = 0.477*[#   8]+0.477*[#   9]+0.010*[#   7]+0.010*[#  10]+0.004*[#  11]
          +0.004*[#  12]+0.002*[#  27]+0.002*[#  28]+0.002*[#  35]+0.002*[#  36]
          +0.001*[#   3]+0.001*[#   4]+0.001*[#  32]+0.001*[#  33]+0.001*[#  40]
          +0.001*[#  41]
    |psi|^2 = 1.000
==== e(   6) =   -34.73609 eV ==== 
     psi = 0.476*[#   8]+0.476*[#   9]+0.010*[#   7]+0.010*[#  10]+0.004*[#  11]
          +0.004*[#  12]+0.002*[#  27]+0.002*[#  28]+0.002*[#  35]+0.002*[#  36]
          +0.001*[#   3]+0.001*[#   4]+0.001*[#  32]+0.001*[#  33]+0.001*[#  40]
          +0.001*[#  41]
    |psi|^2 = 1.000
==== e(   7) =   -34.61310 eV ==== 
     psi = 0.476*[#   7]+0.476*[#  10]+0.010*[#   8]+0.010*[#   9]+0.007*[#  13]
          +0.007*[#  16]+0.002*[#   3]+0.002*[#   4]+0.001*[#  11]+0.001*[#  12]
          
    |psi|^2 = 1.000
==== e(   8) =   -34.61204 eV ==== 
     psi = 0.476*[#   7]+0.476*[#  10]+0.009*[#   8]+0.009*[#   9]+0.008*[#  13]
          +0.008*[#  16]+0.002*[#   3]+0.002*[#   4]+0.001*[#  11]+0.001*[#  12]
          
    |psi|^2 = 1.000
==== e(   9) =   -14.44555 eV ==== 
     psi = 0.136*[#  27]+0.136*[#  28]+0.136*[#  35]+0.136*[#  36]+0.130*[#   3]
          +0.130*[#   4]+0.036*[#  13]+0.036*[#  16]+0.025*[#  11]+0.025*[#  12]
          +0.012*[#  14]+0.012*[#  15]+0.011*[#   1]+0.011*[#   2]+0.002*[#  32]
          +0.002*[#  33]+0.002*[#  40]+0.002*[#  41]+0.002*[#  21]+0.002*[#  26]
          +0.002*[#  29]+0.002*[#  30]+0.002*[#  37]+0.002*[#  38]+0.001*[#  31]
          +0.001*[#  34]+0.001*[#  39]+0.001*[#  42]
    |psi|^2 = 0.999
==== e(  10) =   -14.44469 eV ==== 
     psi = 0.136*[#  27]+0.136*[#  28]+0.136*[#  35]+0.136*[#  36]+0.130*[#   3]
          +0.130*[#   4]+0.038*[#  13]+0.038*[#  16]+0.023*[#  11]+0.023*[#  12]
          +0.011*[#   1]+0.011*[#   2]+0.011*[#  14]+0.011*[#  15]+0.002*[#  32]
          +0.002*[#  33]+0.002*[#  40]+0.002*[#  41]+0.002*[#  29]+0.002*[#  30]
          +0.002*[#  37]+0.002*[#  38]+0.001*[#  17]+0.001*[#  20]
    |psi|^2 = 0.999
==== e(  11) =   -13.29036 eV ==== 
     psi = 0.159*[#  27]+0.159*[#  28]+0.159*[#  35]+0.159*[#  36]+0.103*[#  14]
          +0.103*[#  15]+0.053*[#  11]+0.053*[#  12]+0.006*[#   8]+0.006*[#   9]
          +0.005*[#  22]+0.005*[#  25]+0.005*[#  18]+0.005*[#  19]+0.003*[#  23]
          +0.003*[#  24]+0.002*[#   5]+0.002*[#   6]+0.001*[#  17]+0.001*[#  20]
          
    |psi|^2 = 0.998
==== e(  12) =   -13.29028 eV ==== 
     psi = 0.159*[#  27]+0.159*[#  28]+0.159*[#  35]+0.159*[#  36]+0.104*[#  14]
          +0.104*[#  15]+0.053*[#  11]+0.053*[#  12]+0.006*[#  22]+0.006*[#  25]
          +0.006*[#   8]+0.006*[#   9]+0.004*[#  18]+0.004*[#  19]+0.003*[#  23]
          +0.003*[#  24]+0.002*[#   5]+0.002*[#   6]+0.002*[#  17]+0.002*[#  20]
          
    |psi|^2 = 0.998
==== e(  13) =    -6.01182 eV ==== 
     psi = 0.091*[#  23]+0.091*[#  24]+0.090*[#  32]+0.090*[#  33]+0.090*[#  40]
          +0.090*[#  41]+0.062*[#  18]+0.062*[#  19]+0.047*[#  29]+0.047*[#  30]
          +0.046*[#  37]+0.046*[#  38]+0.015*[#  27]+0.015*[#  28]+0.015*[#  35]
          +0.015*[#  36]+0.011*[#   3]+0.011*[#   4]+0.008*[#  21]+0.008*[#  26]
          +0.008*[#   1]+0.008*[#   2]+0.004*[#  17]+0.004*[#  20]+0.002*[#  31]
          +0.002*[#  34]+0.002*[#  39]+0.002*[#  42]+0.001*[#  22]+0.001*[#  25]
          
    |psi|^2 = 0.986
==== e(  14) =    -6.01072 eV ==== 
     psi = 0.091*[#  23]+0.091*[#  24]+0.090*[#  32]+0.090*[#  33]+0.090*[#  40]
          +0.090*[#  41]+0.062*[#  18]+0.062*[#  19]+0.046*[#  29]+0.046*[#  30]
          +0.046*[#  37]+0.046*[#  38]+0.015*[#  27]+0.015*[#  28]+0.015*[#  35]
          +0.015*[#  36]+0.011*[#   3]+0.011*[#   4]+0.008*[#   1]+0.008*[#   2]
          +0.007*[#  17]+0.007*[#  20]+0.005*[#  21]+0.005*[#  26]+0.002*[#  31]
          +0.002*[#  34]+0.002*[#  39]+0.002*[#  42]+0.002*[#  22]+0.002*[#  25]
          +0.001*[#   7]+0.001*[#  10]+0.001*[#  13]+0.001*[#  16]
    |psi|^2 = 0.986
==== e(  15) =    -3.87733 eV ==== 
     psi = 0.129*[#  17]+0.129*[#  20]+0.118*[#  21]+0.118*[#  26]+0.045*[#  31]
          +0.045*[#  34]+0.045*[#  39]+0.045*[#  42]+0.030*[#  29]+0.030*[#  30]
          +0.030*[#  37]+0.030*[#  38]+0.026*[#  22]+0.026*[#  25]+0.019*[#   3]
          +0.019*[#   4]+0.014*[#  32]+0.014*[#  33]+0.014*[#  40]+0.014*[#  41]
          +0.008*[#  27]+0.008*[#  28]+0.008*[#  35]+0.008*[#  36]+0.003*[#  13]
          +0.003*[#  16]+0.002*[#   1]+0.002*[#   2]+0.001*[#  11]+0.001*[#  12]
          +0.001*[#  18]+0.001*[#  19]+0.001*[#  23]+0.001*[#  24]
    |psi|^2 = 0.991
==== e(  16) =    -3.87201 eV ==== 
     psi = 0.132*[#  21]+0.132*[#  26]+0.118*[#  17]+0.118*[#  20]+0.045*[#  31]
          +0.045*[#  34]+0.045*[#  39]+0.045*[#  42]+0.030*[#  29]+0.030*[#  30]
          +0.031*[#  37]+0.031*[#  38]+0.023*[#  22]+0.023*[#  25]+0.019*[#   3]
          +0.019*[#   4]+0.014*[#  32]+0.014*[#  33]+0.014*[#  40]+0.014*[#  41]
          +0.008*[#  27]+0.008*[#  28]+0.008*[#  35]+0.008*[#  36]+0.003*[#  11]
          +0.003*[#  12]+0.002*[#   1]+0.002*[#   2]+0.001*[#  13]+0.001*[#  16]
          +0.001*[#  18]+0.001*[#  19]+0.001*[#  23]+0.001*[#  24]
    |psi|^2 = 0.991
==== e(  17) =    -3.37541 eV ==== 
     psi = 0.072*[#  40]+0.072*[#  41]+0.068*[#  18]+0.068*[#  19]+0.061*[#  32]
          +0.061*[#  33]+0.056*[#  29]+0.056*[#  30]+0.052*[#  22]+0.052*[#  25]
          +0.043*[#  37]+0.043*[#  38]+0.042*[#  23]+0.042*[#  24]+0.035*[#  39]
          +0.035*[#  42]+0.034*[#  31]+0.034*[#  34]+0.014*[#  17]+0.014*[#  20]
          +0.013*[#  14]+0.013*[#  15]+0.006*[#  11]+0.006*[#  12]
    |psi|^2 = 0.993
==== e(  18) =    -3.37536 eV ==== 
     psi = 0.073*[#  32]+0.073*[#  33]+0.072*[#  22]+0.072*[#  25]+0.066*[#  37]
          +0.066*[#  38]+0.062*[#  40]+0.062*[#  41]+0.054*[#  29]+0.054*[#  30]
          +0.049*[#  18]+0.049*[#  19]+0.029*[#  23]+0.029*[#  24]+0.024*[#  17]
          +0.024*[#  20]+0.024*[#  31]+0.024*[#  34]+0.023*[#  39]+0.023*[#  42]
          +0.013*[#  14]+0.013*[#  15]+0.006*[#  11]+0.006*[#  12]
    |psi|^2 = 0.993
==== e(  19) =    -3.01406 eV ==== 
     psi = 0.152*[#  21]+0.152*[#  26]+0.127*[#  17]+0.127*[#  20]+0.041*[#  31]
          +0.041*[#  34]+0.041*[#  39]+0.041*[#  42]+0.034*[#  29]+0.034*[#  30]
          +0.034*[#  37]+0.034*[#  38]+0.025*[#  22]+0.025*[#  25]+0.017*[#  32]
          +0.017*[#  33]+0.017*[#  40]+0.017*[#  41]+0.003*[#  11]+0.003*[#  12]
          +0.002*[#  13]+0.002*[#  16]+0.001*[#  14]+0.001*[#  15]
    |psi|^2 = 0.992
==== e(  20) =    -3.00302 eV ==== 
     psi = 0.163*[#  21]+0.163*[#  26]+0.112*[#  17]+0.112*[#  20]+0.042*[#  31]
          +0.042*[#  34]+0.042*[#  39]+0.042*[#  42]+0.031*[#  29]+0.031*[#  30]
          +0.031*[#  37]+0.031*[#  38]+0.028*[#  22]+0.028*[#  25]+0.019*[#  32]
          +0.019*[#  33]+0.019*[#  40]+0.019*[#  41]+0.005*[#  13]+0.005*[#  16]
          +0.001*[#  11]+0.001*[#  12]
    |psi|^2 = 0.991
==== e(  21) =    -2.61063 eV ==== 
     psi = 0.141*[#  22]+0.141*[#  25]+0.068*[#  18]+0.068*[#  19]+0.052*[#  29]
          +0.052*[#  30]+0.052*[#  37]+0.052*[#  38]+0.037*[#  23]+0.037*[#  24]
          +0.034*[#  31]+0.034*[#  34]+0.034*[#  39]+0.034*[#  42]+0.026*[#  17]
          +0.026*[#  20]+0.024*[#  32]+0.024*[#  33]+0.024*[#  40]+0.024*[#  41]
          
    |psi|^2 = 0.990
==== e(  22) =    -2.60690 eV ==== 
     psi = 0.104*[#  18]+0.104*[#  19]+0.097*[#  22]+0.097*[#  25]+0.075*[#  31]
          +0.075*[#  34]+0.075*[#  39]+0.075*[#  42]+0.058*[#  23]+0.058*[#  24]
          +0.024*[#  29]+0.024*[#  30]+0.024*[#  37]+0.024*[#  38]+0.018*[#  17]
          +0.018*[#  20]+0.010*[#  32]+0.010*[#  33]+0.010*[#  40]+0.010*[#  41]
          
    |psi|^2 = 0.990
==== e(  23) =    -1.71778 eV ==== 
     psi = 0.112*[#  40]+0.112*[#  41]+0.111*[#  32]+0.111*[#  33]+0.088*[#  29]
          +0.088*[#  30]+0.088*[#  37]+0.088*[#  38]+0.024*[#  31]+0.024*[#  34]
          +0.024*[#  39]+0.024*[#  42]+0.018*[#  22]+0.018*[#  25]+0.013*[#  18]
          +0.013*[#  19]+0.005*[#  23]+0.005*[#  24]+0.003*[#  17]+0.003*[#  20]
          +0.003*[#   8]+0.003*[#   9]+0.001*[#   5]+0.001*[#   6]
    |psi|^2 = 0.985
==== e(  24) =    -1.70632 eV ==== 
     psi = 0.100*[#  32]+0.100*[#  33]+0.100*[#  40]+0.100*[#  41]+0.062*[#  37]
          +0.062*[#  38]+0.062*[#  29]+0.062*[#  30]+0.061*[#  31]+0.061*[#  34]
          +0.061*[#  39]+0.061*[#  42]+0.018*[#  22]+0.018*[#  25]+0.014*[#  18]
          +0.014*[#  19]+0.006*[#  23]+0.006*[#  24]+0.003*[#  17]+0.003*[#  20]
          +0.003*[#   8]+0.003*[#   9]+0.001*[#   5]+0.001*[#   6]
    |psi|^2 = 0.985
==== e(  25) =    -0.88557 eV ==== 
     psi = 0.176*[#  23]+0.176*[#  24]+0.106*[#  18]+0.106*[#  19]+0.053*[#  32]
          +0.053*[#  33]+0.052*[#  40]+0.052*[#  41]+0.021*[#  37]+0.021*[#  38]
          +0.021*[#  29]+0.021*[#  30]+0.015*[#  17]+0.015*[#  20]+0.011*[#  21]
          +0.011*[#  26]+0.007*[#  31]+0.007*[#  34]+0.007*[#  39]+0.007*[#  42]
          +0.005*[#  27]+0.005*[#  28]+0.005*[#  35]+0.005*[#  36]+0.005*[#  13]
          +0.005*[#  16]+0.003*[#  22]+0.003*[#  25]+0.003*[#  11]+0.003*[#  12]
          +0.002*[#   3]+0.002*[#   4]+0.001*[#  14]+0.001*[#  15]
    |psi|^2 = 0.984
==== e(  26) =    -0.88351 eV ==== 
     psi = 0.174*[#  23]+0.174*[#  24]+0.108*[#  18]+0.108*[#  19]+0.053*[#  40]
          +0.053*[#  41]+0.053*[#  32]+0.053*[#  33]+0.022*[#  29]+0.022*[#  30]
          +0.022*[#  37]+0.022*[#  38]+0.019*[#  21]+0.019*[#  26]+0.008*[#  17]
          +0.008*[#  20]+0.005*[#  31]+0.005*[#  34]+0.005*[#  39]+0.005*[#  42]
          +0.005*[#  27]+0.005*[#  28]+0.005*[#  35]+0.005*[#  36]+0.005*[#  13]
          +0.005*[#  16]+0.003*[#  11]+0.003*[#  12]+0.002*[#   3]+0.002*[#   4]
          +0.002*[#  22]+0.002*[#  25]+0.002*[#  14]+0.002*[#  15]
    |psi|^2 = 0.984
==== e(  27) =     1.70950 eV ==== 
     psi = 0.091*[#  17]+0.091*[#  20]+0.074*[#  21]+0.074*[#  26]+0.064*[#  31]
          +0.064*[#  34]+0.063*[#  39]+0.063*[#  42]+0.039*[#  32]+0.039*[#  33]
          +0.037*[#  40]+0.037*[#  41]+0.033*[#  37]+0.033*[#  38]+0.032*[#  29]
          +0.032*[#  30]+0.019*[#  18]+0.019*[#  19]+0.008*[#  23]+0.008*[#  24]
          +0.007*[#  27]+0.007*[#  28]+0.007*[#  35]+0.007*[#  36]+0.004*[#   3]
          +0.004*[#   4]+0.002*[#  22]+0.002*[#  25]
    |psi|^2 = 0.964
==== e(  28) =     1.71525 eV ==== 
     psi = 0.087*[#  17]+0.087*[#  20]+0.074*[#  39]+0.074*[#  42]+0.073*[#  31]
          +0.073*[#  34]+0.067*[#  21]+0.067*[#  26]+0.034*[#  40]+0.034*[#  41]
          +0.033*[#  32]+0.033*[#  33]+0.028*[#  29]+0.028*[#  30]+0.027*[#  18]
          +0.027*[#  19]+0.027*[#  37]+0.027*[#  38]+0.008*[#  22]+0.008*[#  25]
          +0.007*[#  35]+0.007*[#  36]+0.007*[#  27]+0.007*[#  28]+0.005*[#  23]
          +0.005*[#  24]+0.003*[#   3]+0.003*[#   4]+0.001*[#  14]+0.001*[#  15]
          
    |psi|^2 = 0.964
==== e(  29) =     1.82674 eV ==== 
     psi = 0.092*[#  18]+0.092*[#  19]+0.090*[#  23]+0.090*[#  24]+0.055*[#  22]
          +0.055*[#  25]+0.042*[#  29]+0.042*[#  30]+0.042*[#  37]+0.042*[#  38]
          +0.039*[#  31]+0.039*[#  34]+0.039*[#  39]+0.039*[#  42]+0.018*[#  27]
          +0.018*[#  28]+0.018*[#  35]+0.018*[#  36]+0.014*[#  40]+0.014*[#  41]
          +0.014*[#  32]+0.014*[#  33]+0.006*[#  21]+0.006*[#  26]+0.006*[#  14]
          +0.006*[#  15]+0.005*[#  17]+0.005*[#  20]+0.003*[#  11]+0.003*[#  12]
          
    |psi|^2 = 0.967
==== e(  30) =     1.85135 eV ==== 
     psi = 0.144*[#  22]+0.144*[#  25]+0.045*[#  37]+0.045*[#  38]+0.044*[#  29]
          +0.044*[#  30]+0.037*[#  23]+0.037*[#  24]+0.037*[#  39]+0.037*[#  42]
          +0.037*[#  31]+0.037*[#  34]+0.034*[#  18]+0.034*[#  19]+0.023*[#  17]
          +0.023*[#  20]+0.018*[#  27]+0.018*[#  28]+0.018*[#  35]+0.018*[#  36]
          +0.013*[#  32]+0.013*[#  33]+0.013*[#  40]+0.013*[#  41]+0.012*[#  21]
          +0.012*[#  26]+0.006*[#  14]+0.006*[#  15]+0.002*[#  11]+0.002*[#  12]
          
    |psi|^2 = 0.967
==== e(  31) =     2.03774 eV ==== 
     psi = 0.104*[#  21]+0.104*[#  26]+0.065*[#  17]+0.065*[#  20]+0.064*[#  31]
          +0.064*[#  34]+0.064*[#  39]+0.064*[#  42]+0.056*[#  29]+0.056*[#  30]
          +0.056*[#  37]+0.056*[#  38]+0.029*[#  32]+0.029*[#  33]+0.029*[#  40]
          +0.029*[#  41]+0.015*[#  22]+0.015*[#  25]+0.004*[#  11]+0.004*[#  12]
          +0.003*[#  13]+0.003*[#  16]+0.002*[#  14]+0.002*[#  15]+0.001*[#  18]
          +0.001*[#  19]+0.001*[#  23]+0.001*[#  24]
    |psi|^2 = 0.985
==== e(  32) =     2.05083 eV ==== 
     psi = 0.098*[#  21]+0.098*[#  26]+0.074*[#  31]+0.074*[#  34]+0.074*[#  39]
          +0.074*[#  42]+0.056*[#  17]+0.056*[#  20]+0.047*[#  29]+0.047*[#  30]
          +0.047*[#  37]+0.047*[#  38]+0.030*[#  22]+0.030*[#  25]+0.027*[#  32]
          +0.027*[#  33]+0.027*[#  40]+0.027*[#  41]+0.004*[#  13]+0.004*[#  16]
          +0.003*[#  11]+0.003*[#  12]+0.002*[#  23]+0.002*[#  24]+0.001*[#  18]
          +0.001*[#  19]
    |psi|^2 = 0.985
==== e(  33) =     2.52921 eV ==== 
     psi = 0.084*[#  18]+0.084*[#  19]+0.075*[#  31]+0.075*[#  34]+0.075*[#  39]
          +0.075*[#  42]+0.061*[#  23]+0.061*[#  24]+0.055*[#  22]+0.055*[#  25]
          +0.043*[#  29]+0.043*[#  30]+0.043*[#  37]+0.043*[#  38]+0.020*[#  32]
          +0.020*[#  33]+0.020*[#  40]+0.020*[#  41]+0.010*[#  17]+0.010*[#  20]
          
    |psi|^2 = 0.977
==== e(  34) =     2.55298 eV ==== 
     psi = 0.140*[#  22]+0.140*[#  25]+0.070*[#  31]+0.070*[#  34]+0.070*[#  39]
          +0.070*[#  42]+0.045*[#  29]+0.045*[#  30]+0.045*[#  37]+0.045*[#  38]
          +0.028*[#  18]+0.028*[#  19]+0.024*[#  17]+0.024*[#  20]+0.022*[#  32]
          +0.022*[#  33]+0.022*[#  40]+0.022*[#  41]+0.020*[#  23]+0.020*[#  24]
          
    |psi|^2 = 0.977

 k =   0.0250000000  0.2165063511 -0.0876501565
==== e(   1) =   -61.37205 eV ==== 
     psi = 0.451*[#   1]+0.451*[#   2]+0.020*[#  13]+0.020*[#  16]+0.013*[#  11]
          +0.013*[#  12]+0.007*[#  14]+0.007*[#  15]+0.002*[#  32]+0.002*[#  33]
          +0.002*[#  40]+0.002*[#  41]+0.001*[#  29]+0.001*[#  30]+0.001*[#  37]
          +0.001*[#  38]
    |psi|^2 = 1.000
==== e(   2) =   -61.37205 eV ==== 
     psi = 0.451*[#   1]+0.451*[#   2]+0.020*[#  13]+0.020*[#  16]+0.013*[#  11]
          +0.013*[#  12]+0.007*[#  14]+0.007*[#  15]+0.002*[#  32]+0.002*[#  33]
          +0.002*[#  40]+0.002*[#  41]+0.001*[#  29]+0.001*[#  30]+0.001*[#  37]
          +0.001*[#  38]
    |psi|^2 = 1.000
==== e(   3) =   -37.22933 eV ==== 
     psi = 0.488*[#   5]+0.488*[#   6]+0.002*[#  14]+0.002*[#  15]+0.002*[#   3]
          +0.002*[#   4]+0.001*[#  13]+0.001*[#  16]
    |psi|^2 = 1.000
==== e(   4) =   -37.22848 eV ==== 
     psi = 0.488*[#   5]+0.488*[#   6]+0.002*[#  14]+0.002*[#  15]+0.002*[#   3]
          +0.002*[#   4]+0.001*[#  13]+0.001*[#  16]
    |psi|^2 = 1.000
==== e(   5) =   -34.74771 eV ==== 
     psi = 0.448*[#   8]+0.448*[#   9]+0.040*[#   7]+0.040*[#  10]+0.002*[#   3]
          +0.002*[#   4]+0.001*[#  27]+0.001*[#  28]+0.002*[#  35]+0.002*[#  36]
          +0.001*[#  11]+0.001*[#  12]+0.001*[#  29]+0.001*[#  30]+0.001*[#  37]
          +0.001*[#  38]
    |psi|^2 = 1.000
==== e(   6) =   -34.74726 eV ==== 
     psi = 0.446*[#   8]+0.446*[#   9]+0.042*[#   7]+0.042*[#  10]+0.002*[#   3]
          +0.002*[#   4]+0.001*[#  27]+0.001*[#  28]+0.001*[#  35]+0.001*[#  36]
          +0.001*[#  11]+0.001*[#  12]+0.001*[#  32]+0.001*[#  33]+0.001*[#  40]
          +0.001*[#  41]
    |psi|^2 = 1.000
==== e(   7) =   -34.64065 eV ==== 
     psi = 0.445*[#   7]+0.445*[#  10]+0.041*[#   8]+0.041*[#   9]+0.005*[#  13]
          +0.005*[#  16]+0.003*[#  11]+0.003*[#  12]+0.002*[#   3]+0.002*[#   4]
          
    |psi|^2 = 1.000
==== e(   8) =   -34.63896 eV ==== 
     psi = 0.446*[#   7]+0.446*[#  10]+0.039*[#   8]+0.039*[#   9]+0.005*[#  13]
          +0.005*[#  16]+0.003*[#  11]+0.003*[#  12]+0.002*[#   3]+0.002*[#   4]
          
    |psi|^2 = 1.000
==== e(   9) =   -14.22535 eV ==== 
     psi = 0.135*[#  27]+0.135*[#  28]+0.135*[#  35]+0.135*[#  36]+0.100*[#   3]
          +0.100*[#   4]+0.048*[#  13]+0.048*[#  16]+0.034*[#  11]+0.034*[#  12]
          +0.016*[#  14]+0.016*[#  15]+0.011*[#   1]+0.011*[#   2]+0.003*[#  21]
          +0.003*[#  26]+0.002*[#  32]+0.002*[#  33]+0.002*[#  40]+0.002*[#  41]
          +0.002*[#  29]+0.002*[#  30]+0.002*[#  37]+0.002*[#  38]+0.002*[#  17]
          +0.002*[#  20]+0.001*[#  31]+0.001*[#  34]+0.001*[#  39]+0.001*[#  42]
          +0.001*[#   7]+0.001*[#  10]
    |psi|^2 = 0.999
==== e(  10) =   -14.22376 eV ==== 
     psi = 0.135*[#  27]+0.135*[#  28]+0.135*[#  35]+0.135*[#  36]+0.100*[#   3]
          +0.100*[#   4]+0.051*[#  13]+0.051*[#  16]+0.032*[#  11]+0.032*[#  12]
          +0.015*[#  14]+0.015*[#  15]+0.011*[#   1]+0.011*[#   2]+0.003*[#  17]
          +0.003*[#  20]+0.002*[#  32]+0.002*[#  33]+0.002*[#  40]+0.002*[#  41]
          +0.002*[#  21]+0.002*[#  26]+0.002*[#  29]+0.002*[#  30]+0.002*[#  37]
          +0.002*[#  38]+0.002*[#   7]+0.002*[#  10]+0.001*[#  31]+0.001*[#  34]
          +0.001*[#  39]+0.001*[#  42]
    |psi|^2 = 0.999
==== e(  11) =   -13.19943 eV ==== 
     psi = 0.164*[#  27]+0.164*[#  28]+0.164*[#  35]+0.164*[#  36]+0.089*[#  14]
          +0.089*[#  15]+0.045*[#  11]+0.045*[#  12]+0.010*[#  22]+0.010*[#  25]
          +0.008*[#  18]+0.008*[#  19]+0.006*[#  23]+0.006*[#  24]+0.005*[#   8]
          +0.005*[#   9]+0.002*[#  17]+0.002*[#  20]+0.002*[#   5]+0.002*[#   6]
          
    |psi|^2 = 0.999
==== e(  12) =   -13.19929 eV ==== 
     psi = 0.164*[#  27]+0.164*[#  28]+0.164*[#  35]+0.164*[#  36]+0.089*[#  14]
          +0.089*[#  15]+0.045*[#  11]+0.045*[#  12]+0.012*[#  22]+0.012*[#  25]
          +0.007*[#  18]+0.007*[#  19]+0.005*[#   8]+0.005*[#   9]+0.005*[#  23]
          +0.005*[#  24]+0.003*[#  17]+0.003*[#  20]+0.002*[#   5]+0.002*[#   6]
          +0.001*[#  31]+0.001*[#  34]+0.001*[#  39]+0.001*[#  42]
    |psi|^2 = 0.999
==== e(  13) =    -5.81872 eV ==== 
     psi = 0.088*[#  32]+0.088*[#  33]+0.088*[#  40]+0.088*[#  41]+0.079*[#  23]
          +0.079*[#  24]+0.055*[#  18]+0.055*[#  19]+0.047*[#  29]+0.047*[#  30]
          +0.047*[#  37]+0.047*[#  38]+0.023*[#  21]+0.023*[#  26]+0.013*[#  17]
          +0.013*[#  20]+0.011*[#  27]+0.011*[#  28]+0.011*[#  35]+0.011*[#  36]
          +0.007*[#   3]+0.007*[#   4]+0.005*[#   1]+0.005*[#   2]+0.005*[#  31]
          +0.005*[#  34]+0.005*[#  39]+0.005*[#  42]+0.003*[#  22]+0.003*[#  25]
          +0.001*[#   7]+0.001*[#  10]
    |psi|^2 = 0.987
==== e(  14) =    -5.81641 eV ==== 
     psi = 0.088*[#  32]+0.088*[#  33]+0.088*[#  40]+0.088*[#  41]+0.080*[#  23]
          +0.080*[#  24]+0.055*[#  18]+0.055*[#  19]+0.047*[#  29]+0.047*[#  30]
          +0.047*[#  37]+0.047*[#  38]+0.019*[#  17]+0.019*[#  20]+0.016*[#  21]
          +0.016*[#  26]+0.011*[#  27]+0.011*[#  28]+0.011*[#  35]+0.011*[#  36]
          +0.007*[#   3]+0.007*[#   4]+0.005*[#  31]+0.005*[#  34]+0.005*[#  39]
          +0.005*[#  42]+0.005*[#   1]+0.005*[#   2]+0.005*[#  22]+0.005*[#  25]
          +0.002*[#   7]+0.002*[#  10]+0.001*[#  13]+0.001*[#  16]
    |psi|^2 = 0.987
==== e(  15) =    -4.20701 eV ==== 
     psi = 0.101*[#  17]+0.101*[#  20]+0.092*[#  21]+0.092*[#  26]+0.045*[#  31]
          +0.045*[#  34]+0.046*[#  39]+0.046*[#  42]+0.034*[#  29]+0.034*[#  30]
          +0.034*[#  37]+0.034*[#  38]+0.030*[#   3]+0.030*[#   4]+0.021*[#  32]
          +0.021*[#  33]+0.021*[#  40]+0.021*[#  41]+0.020*[#  22]+0.020*[#  25]
          +0.014*[#  27]+0.014*[#  28]+0.014*[#  35]+0.014*[#  36]+0.006*[#  13]
          +0.006*[#  16]+0.005*[#  23]+0.005*[#  24]+0.004*[#  18]+0.004*[#  19]
          +0.003*[#   1]+0.003*[#   2]+0.003*[#  11]+0.003*[#  12]
    |psi|^2 = 0.991
==== e(  16) =    -4.20383 eV ==== 
     psi = 0.108*[#  21]+0.108*[#  26]+0.087*[#  17]+0.087*[#  20]+0.045*[#  31]
          +0.045*[#  34]+0.045*[#  39]+0.045*[#  42]+0.035*[#  29]+0.035*[#  30]
          +0.035*[#  37]+0.035*[#  38]+0.030*[#   3]+0.030*[#   4]+0.021*[#  32]
          +0.021*[#  33]+0.021*[#  40]+0.021*[#  41]+0.017*[#  22]+0.017*[#  25]
          +0.014*[#  27]+0.014*[#  28]+0.014*[#  35]+0.014*[#  36]+0.005*[#  11]
          +0.005*[#  12]+0.005*[#  18]+0.005*[#  19]+0.004*[#  23]+0.004*[#  24]
          +0.003*[#   1]+0.003*[#   2]+0.003*[#  13]+0.003*[#  16]+0.002*[#  14]
          +0.002*[#  15]
    |psi|^2 = 0.991
==== e(  17) =    -3.76579 eV ==== 
     psi = 0.065*[#  18]+0.065*[#  19]+0.057*[#  32]+0.057*[#  33]+0.057*[#  40]
          +0.057*[#  41]+0.056*[#  22]+0.056*[#  25]+0.049*[#  29]+0.049*[#  30]
          +0.049*[#  37]+0.049*[#  38]+0.042*[#  31]+0.042*[#  34]+0.042*[#  39]
          +0.042*[#  42]+0.041*[#  23]+0.041*[#  24]+0.016*[#  14]+0.016*[#  15]
          +0.013*[#  17]+0.013*[#  20]+0.008*[#  11]+0.008*[#  12]+0.001*[#  27]
          +0.001*[#  28]+0.001*[#  35]+0.001*[#  36]
    |psi|^2 = 0.992
==== e(  18) =    -3.76372 eV ==== 
     psi = 0.076*[#  22]+0.076*[#  25]+0.058*[#  32]+0.058*[#  33]+0.058*[#  40]
          +0.058*[#  41]+0.054*[#  29]+0.054*[#  30]+0.054*[#  37]+0.054*[#  38]
          +0.048*[#  18]+0.048*[#  19]+0.036*[#  31]+0.036*[#  34]+0.036*[#  39]
          +0.036*[#  42]+0.030*[#  23]+0.030*[#  24]+0.019*[#  17]+0.019*[#  20]
          +0.016*[#  14]+0.016*[#  15]+0.008*[#  11]+0.008*[#  12]+0.001*[#  27]
          +0.001*[#  28]+0.001*[#  35]+0.001*[#  36]
    |psi|^2 = 0.992
==== e(  19) =    -2.88093 eV ==== 
     psi = 0.102*[#  22]+0.102*[#  25]+0.064*[#  18]+0.064*[#  19]+0.062*[#  17]
          +0.062*[#  20]+0.047*[#  37]+0.047*[#  38]+0.046*[#  29]+0.046*[#  30]
          +0.040*[#  39]+0.040*[#  42]+0.038*[#  31]+0.038*[#  34]+0.036*[#  23]
          +0.036*[#  24]+0.027*[#  40]+0.027*[#  41]+0.026*[#  32]+0.026*[#  33]
          +0.006*[#  21]+0.006*[#  26]
    |psi|^2 = 0.991
==== e(  20) =    -2.88007 eV ==== 
     psi = 0.098*[#  18]+0.098*[#  19]+0.072*[#  31]+0.072*[#  34]+0.071*[#  39]
          +0.071*[#  42]+0.065*[#  22]+0.065*[#  25]+0.055*[#  23]+0.055*[#  24]
          +0.046*[#  17]+0.046*[#  20]+0.029*[#  29]+0.029*[#  30]+0.028*[#  37]
          +0.028*[#  38]+0.012*[#  32]+0.012*[#  33]+0.011*[#  40]+0.011*[#  41]
          +0.006*[#  21]+0.006*[#  26]
    |psi|^2 = 0.991
==== e(  21) =    -2.78900 eV ==== 
     psi = 0.125*[#  21]+0.125*[#  26]+0.088*[#  17]+0.088*[#  20]+0.058*[#  22]
          +0.058*[#  25]+0.046*[#  31]+0.046*[#  34]+0.046*[#  39]+0.046*[#  42]
          +0.043*[#  29]+0.043*[#  30]+0.043*[#  37]+0.043*[#  38]+0.015*[#  32]
          +0.015*[#  33]+0.015*[#  40]+0.015*[#  41]+0.005*[#  11]+0.005*[#  12]
          +0.004*[#  13]+0.004*[#  16]+0.003*[#  18]+0.003*[#  19]+0.002*[#  14]
          +0.002*[#  15]+0.002*[#  23]+0.002*[#  24]
    |psi|^2 = 0.992
==== e(  22) =    -2.77652 eV ==== 
     psi = 0.139*[#  21]+0.139*[#  26]+0.081*[#  17]+0.081*[#  20]+0.050*[#  22]
          +0.050*[#  25]+0.050*[#  31]+0.050*[#  34]+0.050*[#  39]+0.050*[#  42]
          +0.036*[#  29]+0.036*[#  30]+0.035*[#  37]+0.035*[#  38]+0.019*[#  32]
          +0.019*[#  33]+0.019*[#  40]+0.019*[#  41]+0.007*[#  13]+0.007*[#  16]
          +0.004*[#  18]+0.004*[#  19]+0.003*[#  23]+0.003*[#  24]+0.003*[#  11]
          +0.003*[#  12]+0.001*[#  14]+0.001*[#  15]
    |psi|^2 = 0.991
==== e(  23) =    -1.76521 eV ==== 
     psi = 0.119*[#  32]+0.119*[#  33]+0.119*[#  40]+0.119*[#  41]+0.092*[#  29]
          +0.092*[#  30]+0.092*[#  37]+0.092*[#  38]+0.025*[#  31]+0.025*[#  34]
          +0.025*[#  39]+0.025*[#  42]+0.005*[#  22]+0.005*[#  25]+0.003*[#   8]
          +0.003*[#   9]+0.003*[#  18]+0.003*[#  19]+0.003*[#  27]+0.003*[#  28]
          +0.003*[#  35]+0.003*[#  36]+0.001*[#   5]+0.001*[#   6]+0.001*[#  17]
          +0.001*[#  20]
    |psi|^2 = 0.986
==== e(  24) =    -1.75382 eV ==== 
     psi = 0.108*[#  32]+0.108*[#  33]+0.108*[#  40]+0.108*[#  41]+0.065*[#  37]
          +0.065*[#  38]+0.065*[#  29]+0.065*[#  30]+0.062*[#  31]+0.062*[#  34]
          +0.062*[#  39]+0.062*[#  42]+0.005*[#  18]+0.005*[#  19]+0.004*[#  22]
          +0.004*[#  25]+0.003*[#   8]+0.003*[#   9]+0.003*[#  27]+0.003*[#  28]
          +0.003*[#  35]+0.003*[#  36]+0.002*[#  23]+0.002*[#  24]+0.001*[#   5]
          +0.001*[#   6]
    |psi|^2 = 0.986
==== e(  25) =    -1.09404 eV ==== 
     psi = 0.159*[#  23]+0.159*[#  24]+0.099*[#  18]+0.099*[#  19]+0.042*[#  32]
          +0.042*[#  33]+0.042*[#  40]+0.042*[#  41]+0.032*[#  17]+0.032*[#  20]
          +0.025*[#  21]+0.025*[#  26]+0.019*[#  29]+0.019*[#  30]+0.019*[#  37]
          +0.019*[#  38]+0.012*[#  31]+0.012*[#  34]+0.012*[#  39]+0.012*[#  42]
          +0.008*[#  22]+0.008*[#  25]+0.006*[#  27]+0.006*[#  28]+0.006*[#  35]
          +0.006*[#  36]+0.004*[#  13]+0.004*[#  16]+0.004*[#   3]+0.004*[#   4]
          +0.002*[#  11]+0.002*[#  12]+0.001*[#  14]+0.001*[#  15]
    |psi|^2 = 0.989
==== e(  26) =    -1.08842 eV ==== 
     psi = 0.158*[#  23]+0.158*[#  24]+0.101*[#  18]+0.101*[#  19]+0.044*[#  21]
          +0.044*[#  26]+0.042*[#  40]+0.042*[#  41]+0.042*[#  32]+0.042*[#  33]
          +0.021*[#  29]+0.021*[#  30]+0.021*[#  37]+0.021*[#  38]+0.017*[#  17]
          +0.017*[#  20]+0.010*[#  31]+0.010*[#  34]+0.010*[#  39]+0.010*[#  42]
          +0.006*[#  27]+0.006*[#  28]+0.006*[#  35]+0.006*[#  36]+0.004*[#  22]
          +0.004*[#  25]+0.004*[#  13]+0.004*[#  16]+0.004*[#   3]+0.004*[#   4]
          +0.002*[#  11]+0.002*[#  12]+0.001*[#  14]+0.001*[#  15]
    |psi|^2 = 0.988
==== e(  27) =     1.50977 eV ==== 
     psi = 0.090*[#  17]+0.090*[#  20]+0.068*[#  31]+0.068*[#  34]+0.068*[#  39]
          +0.068*[#  42]+0.056*[#  21]+0.056*[#  26]+0.032*[#  32]+0.032*[#  33]
          +0.032*[#  18]+0.032*[#  19]+0.031*[#  40]+0.031*[#  41]+0.024*[#  23]
          +0.024*[#  24]+0.024*[#  37]+0.024*[#  38]+0.023*[#  29]+0.023*[#  30]
          +0.014*[#  22]+0.014*[#  25]+0.006*[#  27]+0.006*[#  28]+0.006*[#  35]
          +0.006*[#  36]+0.002*[#   3]+0.002*[#   4]+0.001*[#  14]+0.001*[#  15]
          
    |psi|^2 = 0.956
==== e(  28) =     1.51261 eV ==== 
     psi = 0.082*[#  21]+0.082*[#  26]+0.069*[#  17]+0.069*[#  20]+0.047*[#  39]
          +0.047*[#  42]+0.047*[#  31]+0.047*[#  34]+0.039*[#  40]+0.039*[#  41]
          +0.038*[#  32]+0.038*[#  33]+0.036*[#  29]+0.036*[#  30]+0.036*[#  37]
          +0.036*[#  38]+0.029*[#  23]+0.029*[#  24]+0.029*[#  18]+0.029*[#  19]
          +0.009*[#  22]+0.009*[#  25]+0.006*[#  27]+0.006*[#  28]+0.006*[#  35]
          +0.006*[#  36]+0.002*[#   3]+0.002*[#   4]+0.002*[#  13]+0.002*[#  16]
          
    |psi|^2 = 0.954
==== e(  29) =     1.85471 eV ==== 
     psi = 0.103*[#  17]+0.103*[#  20]+0.091*[#  21]+0.091*[#  26]+0.054*[#  39]
          +0.054*[#  42]+0.054*[#  31]+0.054*[#  34]+0.051*[#  29]+0.051*[#  30]
          +0.050*[#  37]+0.050*[#  38]+0.017*[#  32]+0.017*[#  33]+0.017*[#  40]
          +0.017*[#  41]+0.012*[#  18]+0.012*[#  19]+0.010*[#  22]+0.010*[#  25]
          +0.009*[#  23]+0.009*[#  24]+0.006*[#  27]+0.006*[#  28]+0.006*[#  35]
          +0.006*[#  36]+0.005*[#  14]+0.005*[#  15]+0.003*[#  13]+0.003*[#  16]
          
    |psi|^2 = 0.979
==== e(  30) =     1.86129 eV ==== 
     psi = 0.101*[#  21]+0.101*[#  26]+0.074*[#  17]+0.074*[#  20]+0.051*[#  37]
          +0.051*[#  38]+0.050*[#  29]+0.050*[#  30]+0.042*[#  31]+0.042*[#  34]
          +0.042*[#  39]+0.042*[#  42]+0.029*[#  32]+0.029*[#  33]+0.029*[#  40]
          +0.029*[#  41]+0.028*[#  23]+0.028*[#  24]+0.022*[#  18]+0.022*[#  19]
          +0.006*[#  27]+0.006*[#  28]+0.006*[#  35]+0.006*[#  36]+0.003*[#  14]
          +0.003*[#  15]+0.003*[#  11]+0.003*[#  12]+0.002*[#  13]+0.002*[#  16]
          
    |psi|^2 = 0.977
==== e(  31) =     1.88620 eV ==== 
     psi = 0.083*[#  18]+0.083*[#  19]+0.079*[#  22]+0.079*[#  25]+0.066*[#  23]
          +0.066*[#  24]+0.036*[#  31]+0.036*[#  34]+0.036*[#  39]+0.036*[#  42]
          +0.034*[#  29]+0.034*[#  30]+0.035*[#  37]+0.035*[#  38]+0.025*[#  21]
          +0.025*[#  26]+0.020*[#  32]+0.020*[#  33]+0.020*[#  40]+0.020*[#  41]
          +0.018*[#  27]+0.018*[#  28]+0.018*[#  35]+0.018*[#  36]+0.006*[#  14]
          +0.006*[#  15]+0.005*[#  11]+0.005*[#  12]+0.003*[#  17]+0.003*[#  20]
          +0.001*[#  13]+0.001*[#  16]
    |psi|^2 = 0.968
==== e(  32) =     1.92279 eV ==== 
     psi = 0.166*[#  22]+0.166*[#  25]+0.044*[#  31]+0.044*[#  34]+0.044*[#  39]
          +0.044*[#  42]+0.032*[#  18]+0.032*[#  19]+0.032*[#  23]+0.032*[#  24]
          +0.025*[#  32]+0.025*[#  33]+0.025*[#  40]+0.025*[#  41]+0.022*[#  21]
          +0.022*[#  26]+0.021*[#  29]+0.021*[#  30]+0.021*[#  37]+0.021*[#  38]
          +0.019*[#  27]+0.019*[#  28]+0.019*[#  35]+0.019*[#  36]+0.006*[#  11]
          +0.006*[#  12]+0.004*[#  14]+0.004*[#  15]+0.003*[#  17]+0.003*[#  20]
          
    |psi|^2 = 0.967
==== e(  33) =     2.79510 eV ==== 
     psi = 0.085*[#  18]+0.085*[#  19]+0.072*[#  31]+0.072*[#  34]+0.072*[#  39]
          +0.072*[#  42]+0.062*[#  23]+0.062*[#  24]+0.057*[#  22]+0.057*[#  25]
          +0.044*[#  29]+0.044*[#  30]+0.044*[#  37]+0.044*[#  38]+0.021*[#  32]
          +0.021*[#  33]+0.021*[#  40]+0.021*[#  41]+0.012*[#  17]+0.012*[#  20]
          
    |psi|^2 = 0.980
==== e(  34) =     2.81670 eV ==== 
     psi = 0.134*[#  22]+0.134*[#  25]+0.066*[#  31]+0.066*[#  34]+0.066*[#  39]
          +0.066*[#  42]+0.047*[#  29]+0.047*[#  30]+0.047*[#  37]+0.047*[#  38]
          +0.033*[#  18]+0.033*[#  19]+0.027*[#  17]+0.027*[#  20]+0.024*[#  23]
          +0.024*[#  24]+0.023*[#  32]+0.023*[#  33]+0.023*[#  40]+0.023*[#  41]
          
    |psi|^2 = 0.980

 k =   0.0250000000  0.2742413780 -0.0876501565
==== e(   1) =   -61.36623 eV ==== 
     psi = 0.449*[#   1]+0.449*[#   2]+0.021*[#  13]+0.021*[#  16]+0.013*[#  11]
          +0.013*[#  12]+0.007*[#  14]+0.007*[#  15]+0.002*[#   3]+0.002*[#   4]
          +0.002*[#  32]+0.002*[#  33]+0.002*[#  40]+0.002*[#  41]+0.001*[#  29]
          +0.001*[#  30]+0.001*[#  37]+0.001*[#  38]
    |psi|^2 = 1.000
==== e(   2) =   -61.36623 eV ==== 
     psi = 0.449*[#   1]+0.449*[#   2]+0.021*[#  13]+0.021*[#  16]+0.013*[#  11]
          +0.013*[#  12]+0.007*[#  14]+0.007*[#  15]+0.002*[#   3]+0.002*[#   4]
          +0.002*[#  32]+0.002*[#  33]+0.002*[#  40]+0.002*[#  41]+0.001*[#  29]
          +0.001*[#  30]+0.001*[#  37]+0.001*[#  38]
    |psi|^2 = 1.000
==== e(   3) =   -37.24625 eV ==== 
     psi = 0.488*[#   5]+0.488*[#   6]+0.002*[#  13]+0.002*[#  16]+0.002*[#   3]
          +0.002*[#   4]+0.001*[#  32]+0.001*[#  33]+0.001*[#  40]+0.001*[#  41]
          
    |psi|^2 = 1.000
==== e(   4) =   -37.24497 eV ==== 
     psi = 0.488*[#   5]+0.488*[#   6]+0.002*[#  13]+0.002*[#  16]+0.002*[#   3]
          +0.002*[#   4]
    |psi|^2 = 1.000
==== e(   5) =   -34.76704 eV ==== 
     psi = 0.380*[#   8]+0.380*[#   9]+0.107*[#   7]+0.107*[#  10]+0.003*[#   3]
          +0.003*[#   4]+0.002*[#  29]+0.002*[#  30]+0.002*[#  37]+0.002*[#  38]
          +0.001*[#  35]+0.001*[#  36]+0.001*[#  27]+0.001*[#  28]
    |psi|^2 = 1.000
==== e(   6) =   -34.76694 eV ==== 
     psi = 0.374*[#   8]+0.374*[#   9]+0.113*[#   7]+0.113*[#  10]+0.003*[#   3]
          +0.003*[#   4]+0.001*[#  27]+0.001*[#  28]+0.001*[#  29]+0.001*[#  30]
          +0.001*[#  35]+0.001*[#  36]+0.001*[#  37]+0.001*[#  38]
    |psi|^2 = 1.000
==== e(   7) =   -34.66413 eV ==== 
     psi = 0.372*[#   7]+0.372*[#  10]+0.113*[#   8]+0.113*[#   9]+0.004*[#  11]
          +0.004*[#  12]+0.003*[#  13]+0.003*[#  16]+0.001*[#  14]+0.001*[#  15]
          
    |psi|^2 = 1.000
==== e(   8) =   -34.66217 eV ==== 
     psi = 0.379*[#   7]+0.379*[#  10]+0.107*[#   8]+0.107*[#   9]+0.003*[#  11]
          +0.003*[#  12]+0.003*[#  13]+0.003*[#  16]
    |psi|^2 = 1.000
==== e(   9) =   -13.96004 eV ==== 
     psi = 0.138*[#  27]+0.138*[#  28]+0.138*[#  35]+0.138*[#  36]+0.075*[#   3]
          +0.075*[#   4]+0.054*[#  13]+0.054*[#  16]+0.040*[#  11]+0.040*[#  12]
          +0.018*[#  14]+0.018*[#  15]+0.010*[#   1]+0.010*[#   2]+0.006*[#  21]
          +0.006*[#  26]+0.003*[#  17]+0.003*[#  20]+0.002*[#  32]+0.002*[#  33]
          +0.002*[#  40]+0.002*[#  41]+0.002*[#   7]+0.002*[#  10]+0.002*[#  29]
          +0.002*[#  30]+0.002*[#  37]+0.002*[#  38]+0.002*[#  31]+0.002*[#  34]
          +0.002*[#  39]+0.002*[#  42]+0.001*[#   5]+0.001*[#   6]
    |psi|^2 = 0.999
==== e(  10) =   -13.95753 eV ==== 
     psi = 0.138*[#  27]+0.138*[#  28]+0.138*[#  35]+0.138*[#  36]+0.075*[#   3]
          +0.075*[#   4]+0.058*[#  13]+0.058*[#  16]+0.036*[#  11]+0.036*[#  12]
          +0.017*[#  14]+0.017*[#  15]+0.010*[#   1]+0.010*[#   2]+0.004*[#  17]
          +0.004*[#  20]+0.004*[#  21]+0.004*[#  26]+0.002*[#   7]+0.002*[#  10]
          +0.002*[#  32]+0.002*[#  33]+0.002*[#  40]+0.002*[#  41]+0.002*[#  29]
          +0.002*[#  30]+0.002*[#  37]+0.002*[#  38]+0.002*[#  31]+0.002*[#  34]
          +0.002*[#  39]+0.002*[#  42]+0.001*[#   5]+0.001*[#   6]+0.001*[#  22]
          +0.001*[#  25]
    |psi|^2 = 0.999
==== e(  11) =   -13.09045 eV ==== 
     psi = 0.171*[#  27]+0.171*[#  28]+0.171*[#  35]+0.171*[#  36]+0.071*[#  14]
          +0.071*[#  15]+0.035*[#  11]+0.035*[#  12]+0.015*[#  22]+0.015*[#  25]
          +0.013*[#  18]+0.013*[#  19]+0.009*[#  23]+0.009*[#  24]+0.004*[#   8]
          +0.004*[#   9]+0.004*[#  17]+0.004*[#  20]+0.001*[#   5]+0.001*[#   6]
          +0.001*[#  31]+0.001*[#  34]+0.001*[#  39]+0.001*[#  42]+0.001*[#  29]
          +0.001*[#  30]+0.001*[#  37]+0.001*[#  38]
    |psi|^2 = 0.999
==== e(  12) =   -13.09023 eV ==== 
     psi = 0.171*[#  27]+0.171*[#  28]+0.171*[#  35]+0.171*[#  36]+0.071*[#  14]
          +0.071*[#  15]+0.035*[#  11]+0.035*[#  12]+0.018*[#  22]+0.018*[#  25]
          +0.011*[#  18]+0.011*[#  19]+0.008*[#  23]+0.008*[#  24]+0.004*[#  17]
          +0.004*[#  20]+0.004*[#   8]+0.004*[#   9]+0.001*[#   5]+0.001*[#   6]
          +0.001*[#  31]+0.001*[#  34]+0.001*[#  39]+0.001*[#  42]
    |psi|^2 = 0.999
==== e(  13) =    -5.69369 eV ==== 
     psi = 0.076*[#  32]+0.076*[#  33]+0.076*[#  40]+0.076*[#  41]+0.060*[#  23]
          +0.060*[#  24]+0.052*[#  21]+0.052*[#  26]+0.046*[#  29]+0.046*[#  30]
          +0.046*[#  37]+0.046*[#  38]+0.041*[#  18]+0.041*[#  19]+0.036*[#  17]
          +0.036*[#  20]+0.014*[#  31]+0.014*[#  34]+0.014*[#  39]+0.014*[#  42]
          +0.009*[#  22]+0.009*[#  25]+0.006*[#  27]+0.006*[#  28]+0.006*[#  35]
          +0.006*[#  36]+0.003*[#   3]+0.003*[#   4]+0.002*[#   1]+0.002*[#   2]
          
    |psi|^2 = 0.988
==== e(  14) =    -5.68974 eV ==== 
     psi = 0.076*[#  32]+0.076*[#  33]+0.076*[#  40]+0.076*[#  41]+0.060*[#  23]
          +0.060*[#  24]+0.046*[#  29]+0.046*[#  30]+0.046*[#  37]+0.046*[#  38]
          +0.044*[#  17]+0.044*[#  20]+0.043*[#  21]+0.043*[#  26]+0.041*[#  18]
          +0.041*[#  19]+0.015*[#  31]+0.015*[#  34]+0.015*[#  39]+0.015*[#  42]
          +0.010*[#  22]+0.010*[#  25]+0.006*[#  27]+0.006*[#  28]+0.006*[#  35]
          +0.006*[#  36]+0.004*[#   3]+0.004*[#   4]+0.002*[#   1]+0.002*[#   2]
          +0.002*[#   7]+0.002*[#  10]
    |psi|^2 = 0.988
==== e(  15) =    -4.46571 eV ==== 
     psi = 0.059*[#  17]+0.059*[#  20]+0.048*[#  21]+0.048*[#  26]+0.043*[#  39]
          +0.043*[#  42]+0.042*[#  31]+0.042*[#  34]+0.042*[#  37]+0.042*[#  38]
          +0.039*[#  32]+0.039*[#  33]+0.039*[#  29]+0.039*[#  30]+0.038*[#   3]
          +0.038*[#   4]+0.037*[#  40]+0.037*[#  41]+0.023*[#  27]+0.023*[#  28]
          +0.023*[#  35]+0.023*[#  36]+0.014*[#  23]+0.014*[#  24]+0.014*[#  18]
          +0.014*[#  19]+0.010*[#  22]+0.010*[#  25]+0.010*[#  13]+0.010*[#  16]
          +0.006*[#  11]+0.006*[#  12]+0.005*[#   1]+0.005*[#   2]+0.002*[#  14]
          +0.002*[#  15]+0.001*[#   7]+0.001*[#  10]
    |psi|^2 = 0.991
==== e(  16) =    -4.46554 eV ==== 
     psi = 0.064*[#  21]+0.064*[#  26]+0.045*[#  17]+0.045*[#  20]+0.043*[#  29]
          +0.043*[#  30]+0.041*[#  31]+0.041*[#  34]+0.041*[#  39]+0.041*[#  42]
          +0.040*[#  37]+0.040*[#  38]+0.039*[#  40]+0.039*[#  41]+0.038*[#   3]
          +0.038*[#   4]+0.037*[#  32]+0.037*[#  33]+0.023*[#  27]+0.023*[#  28]
          +0.023*[#  35]+0.023*[#  36]+0.014*[#  18]+0.014*[#  19]+0.014*[#  23]
          +0.014*[#  24]+0.009*[#  11]+0.009*[#  12]+0.008*[#  22]+0.008*[#  25]
          +0.006*[#  13]+0.006*[#  16]+0.005*[#   1]+0.005*[#   2]+0.003*[#  14]
          +0.003*[#  15]+0.001*[#   7]+0.001*[#  10]
    |psi|^2 = 0.991
==== e(  17) =    -4.16092 eV ==== 
     psi = 0.057*[#  22]+0.057*[#  25]+0.054*[#  18]+0.054*[#  19]+0.052*[#  29]
          +0.052*[#  30]+0.052*[#  37]+0.052*[#  38]+0.049*[#  31]+0.049*[#  34]
          +0.049*[#  32]+0.049*[#  33]+0.049*[#  39]+0.049*[#  42]+0.049*[#  40]
          +0.049*[#  41]+0.038*[#  23]+0.038*[#  24]+0.018*[#  14]+0.018*[#  15]
          +0.013*[#  17]+0.013*[#  20]+0.009*[#  11]+0.009*[#  12]+0.003*[#  27]
          +0.003*[#  28]+0.003*[#  35]+0.003*[#  36]
    |psi|^2 = 0.991
==== e(  18) =    -4.15813 eV ==== 
     psi = 0.069*[#  22]+0.069*[#  25]+0.052*[#  29]+0.052*[#  30]+0.052*[#  37]
          +0.052*[#  38]+0.051*[#  31]+0.051*[#  34]+0.050*[#  39]+0.050*[#  42]
          +0.048*[#  32]+0.048*[#  33]+0.049*[#  40]+0.049*[#  41]+0.044*[#  18]
          +0.044*[#  19]+0.031*[#  23]+0.031*[#  24]+0.018*[#  14]+0.018*[#  15]
          +0.016*[#  17]+0.016*[#  20]+0.009*[#  11]+0.009*[#  12]+0.003*[#  27]
          +0.003*[#  28]+0.003*[#  35]+0.003*[#  36]
    |psi|^2 = 0.991
==== e(  19) =    -3.14082 eV ==== 
     psi = 0.098*[#  18]+0.098*[#  19]+0.084*[#  22]+0.084*[#  25]+0.067*[#  31]
          +0.067*[#  34]+0.067*[#  39]+0.067*[#  42]+0.056*[#  23]+0.056*[#  24]
          +0.032*[#  29]+0.032*[#  30]+0.032*[#  37]+0.032*[#  38]+0.026*[#  17]
          +0.026*[#  20]+0.015*[#  32]+0.015*[#  33]+0.015*[#  40]+0.015*[#  41]
          
    |psi|^2 = 0.991
==== e(  20) =    -3.13993 eV ==== 
     psi = 0.121*[#  22]+0.121*[#  25]+0.069*[#  18]+0.069*[#  19]+0.046*[#  29]
          +0.046*[#  30]+0.046*[#  37]+0.046*[#  38]+0.045*[#  31]+0.045*[#  34]
          +0.045*[#  39]+0.045*[#  42]+0.039*[#  23]+0.039*[#  24]+0.036*[#  17]
          +0.036*[#  20]+0.024*[#  32]+0.024*[#  33]+0.024*[#  40]+0.024*[#  41]
          
    |psi|^2 = 0.992
==== e(  21) =    -2.54147 eV ==== 
     psi = 0.104*[#  21]+0.104*[#  26]+0.103*[#  17]+0.103*[#  20]+0.053*[#  31]
          +0.053*[#  34]+0.053*[#  39]+0.053*[#  42]+0.050*[#  29]+0.050*[#  30]
          +0.050*[#  37]+0.050*[#  38]+0.029*[#  22]+0.029*[#  25]+0.016*[#  32]
          +0.016*[#  33]+0.016*[#  40]+0.016*[#  41]+0.007*[#  11]+0.007*[#  12]
          +0.006*[#  13]+0.006*[#  16]+0.003*[#  14]+0.003*[#  15]+0.002*[#  23]
          +0.002*[#  24]
    |psi|^2 = 0.992
==== e(  22) =    -2.52520 eV ==== 
     psi = 0.123*[#  21]+0.123*[#  26]+0.089*[#  17]+0.089*[#  20]+0.057*[#  31]
          +0.057*[#  34]+0.057*[#  39]+0.057*[#  42]+0.044*[#  29]+0.044*[#  30]
          +0.044*[#  37]+0.044*[#  38]+0.027*[#  22]+0.027*[#  25]+0.018*[#  32]
          +0.018*[#  33]+0.018*[#  40]+0.018*[#  41]+0.010*[#  13]+0.010*[#  16]
          +0.004*[#  11]+0.004*[#  12]+0.002*[#  14]+0.002*[#  15]
    |psi|^2 = 0.992
==== e(  23) =    -1.91878 eV ==== 
     psi = 0.122*[#  32]+0.122*[#  33]+0.122*[#  40]+0.122*[#  41]+0.088*[#  29]
          +0.088*[#  30]+0.087*[#  37]+0.087*[#  38]+0.024*[#  31]+0.024*[#  34]
          +0.024*[#  39]+0.024*[#  42]+0.006*[#  27]+0.006*[#  28]+0.006*[#  35]
          +0.006*[#  36]+0.004*[#  22]+0.004*[#  25]+0.003*[#   8]+0.003*[#   9]
          +0.003*[#  17]+0.003*[#  20]+0.001*[#   5]+0.001*[#   6]+0.001*[#  14]
          +0.001*[#  15]
    |psi|^2 = 0.989
==== e(  24) =    -1.90859 eV ==== 
     psi = 0.114*[#  32]+0.114*[#  33]+0.114*[#  40]+0.114*[#  41]+0.062*[#  29]
          +0.062*[#  30]+0.062*[#  37]+0.062*[#  38]+0.057*[#  31]+0.057*[#  34]
          +0.057*[#  39]+0.057*[#  42]+0.006*[#  27]+0.006*[#  28]+0.006*[#  35]
          +0.006*[#  36]+0.005*[#  18]+0.005*[#  19]+0.003*[#   8]+0.003*[#   9]
          +0.003*[#  23]+0.003*[#  24]+0.001*[#   5]+0.001*[#   6]+0.001*[#  14]
          +0.001*[#  15]
    |psi|^2 = 0.989
==== e(  25) =    -1.36327 eV ==== 
     psi = 0.140*[#  23]+0.140*[#  24]+0.089*[#  18]+0.089*[#  19]+0.054*[#  17]
          +0.054*[#  20]+0.042*[#  21]+0.042*[#  26]+0.033*[#  32]+0.033*[#  33]
          +0.033*[#  40]+0.033*[#  41]+0.017*[#  29]+0.017*[#  30]+0.017*[#  37]
          +0.017*[#  38]+0.014*[#  22]+0.014*[#  25]+0.014*[#  31]+0.014*[#  34]
          +0.014*[#  39]+0.014*[#  42]+0.007*[#  27]+0.007*[#  28]+0.007*[#  35]
          +0.007*[#  36]+0.005*[#   3]+0.005*[#   4]+0.004*[#  13]+0.004*[#  16]
          +0.002*[#  11]+0.002*[#  12]+0.001*[#  14]+0.001*[#  15]
    |psi|^2 = 0.990
==== e(  26) =    -1.35122 eV ==== 
     psi = 0.139*[#  23]+0.139*[#  24]+0.090*[#  18]+0.090*[#  19]+0.077*[#  21]
          +0.077*[#  26]+0.032*[#  32]+0.032*[#  33]+0.032*[#  40]+0.032*[#  41]
          +0.028*[#  17]+0.028*[#  20]+0.018*[#  29]+0.018*[#  30]+0.018*[#  37]
          +0.018*[#  38]+0.014*[#  31]+0.014*[#  34]+0.014*[#  39]+0.014*[#  42]
          +0.008*[#  22]+0.008*[#  25]+0.006*[#  27]+0.006*[#  28]+0.006*[#  35]
          +0.006*[#  36]+0.005*[#   3]+0.005*[#   4]+0.004*[#  13]+0.004*[#  16]
          +0.002*[#  11]+0.002*[#  12]+0.001*[#  14]+0.001*[#  15]
    |psi|^2 = 0.990
==== e(  27) =     1.42973 eV ==== 
     psi = 0.104*[#  17]+0.104*[#  20]+0.066*[#  31]+0.066*[#  34]+0.066*[#  39]
          +0.066*[#  42]+0.045*[#  18]+0.045*[#  19]+0.044*[#  23]+0.044*[#  24]
          +0.029*[#  21]+0.029*[#  26]+0.028*[#  32]+0.028*[#  33]+0.028*[#  40]
          +0.028*[#  41]+0.019*[#  22]+0.019*[#  25]+0.015*[#  29]+0.015*[#  30]
          +0.015*[#  37]+0.015*[#  38]+0.004*[#  27]+0.004*[#  28]+0.004*[#  35]
          +0.004*[#  36]+0.002*[#   3]+0.002*[#   4]+0.001*[#  13]+0.001*[#  14]
          +0.001*[#  15]+0.001*[#  16]+0.001*[#  11]+0.001*[#  12]
    |psi|^2 = 0.954
==== e(  28) =     1.44503 eV ==== 
     psi = 0.087*[#  21]+0.087*[#  26]+0.053*[#  23]+0.053*[#  24]+0.052*[#  17]
          +0.052*[#  20]+0.045*[#  18]+0.045*[#  19]+0.040*[#  40]+0.040*[#  41]
          +0.040*[#  32]+0.040*[#  33]+0.036*[#  29]+0.036*[#  30]+0.036*[#  37]
          +0.036*[#  38]+0.032*[#  31]+0.032*[#  34]+0.032*[#  39]+0.032*[#  42]
          +0.009*[#  22]+0.009*[#  25]+0.004*[#  27]+0.004*[#  28]+0.004*[#  35]
          +0.004*[#  36]+0.003*[#  13]+0.003*[#  16]+0.002*[#   3]+0.002*[#   4]
          
    |psi|^2 = 0.951
==== e(  29) =     1.71293 eV ==== 
     psi = 0.122*[#  21]+0.122*[#  26]+0.105*[#  17]+0.105*[#  20]+0.063*[#  31]
          +0.063*[#  34]+0.063*[#  39]+0.063*[#  42]+0.038*[#  29]+0.038*[#  30]
          +0.038*[#  37]+0.038*[#  38]+0.017*[#  32]+0.017*[#  33]+0.017*[#  40]
          +0.017*[#  41]+0.015*[#  22]+0.015*[#  25]+0.003*[#  18]+0.003*[#  19]
          +0.002*[#  13]+0.002*[#  16]+0.002*[#  23]+0.002*[#  24]+0.002*[#  11]
          +0.002*[#  12]+0.002*[#  14]+0.002*[#  15]
    |psi|^2 = 0.983
==== e(  30) =     1.72049 eV ==== 
     psi = 0.159*[#  21]+0.159*[#  26]+0.064*[#  17]+0.064*[#  20]+0.053*[#  29]
          +0.053*[#  30]+0.053*[#  37]+0.053*[#  38]+0.034*[#  31]+0.034*[#  34]
          +0.034*[#  39]+0.034*[#  42]+0.030*[#  32]+0.030*[#  33]+0.030*[#  40]
          +0.030*[#  41]+0.013*[#  22]+0.013*[#  25]+0.008*[#  23]+0.008*[#  24]
          +0.005*[#  18]+0.005*[#  19]+0.004*[#  13]+0.004*[#  16]+0.002*[#  11]
          +0.002*[#  12]
    |psi|^2 = 0.981
==== e(  31) =     2.08034 eV ==== 
     psi = 0.101*[#  18]+0.101*[#  19]+0.088*[#  23]+0.088*[#  24]+0.070*[#  22]
          +0.070*[#  25]+0.027*[#  29]+0.027*[#  30]+0.027*[#  37]+0.027*[#  38]
          +0.027*[#  27]+0.027*[#  28]+0.027*[#  35]+0.027*[#  36]+0.027*[#  32]
          +0.027*[#  33]+0.027*[#  40]+0.027*[#  41]+0.017*[#  31]+0.017*[#  34]
          +0.017*[#  39]+0.017*[#  42]+0.009*[#  17]+0.009*[#  20]+0.009*[#  14]
          +0.009*[#  15]+0.005*[#  11]+0.005*[#  12]
    |psi|^2 = 0.956
==== e(  32) =     2.10572 eV ==== 
     psi = 0.158*[#  22]+0.158*[#  25]+0.046*[#  18]+0.046*[#  19]+0.042*[#  23]
          +0.042*[#  24]+0.027*[#  32]+0.027*[#  33]+0.027*[#  40]+0.027*[#  41]
          +0.027*[#  27]+0.027*[#  28]+0.027*[#  35]+0.027*[#  36]+0.023*[#  17]
          +0.023*[#  20]+0.022*[#  31]+0.022*[#  34]+0.022*[#  39]+0.022*[#  42]
          +0.021*[#  29]+0.021*[#  30]+0.021*[#  37]+0.021*[#  38]+0.009*[#  14]
          +0.009*[#  15]+0.005*[#  11]+0.005*[#  12]
    |psi|^2 = 0.956
==== e(  33) =     3.04702 eV ==== 
     psi = 0.084*[#  18]+0.084*[#  19]+0.071*[#  31]+0.071*[#  34]+0.071*[#  39]
          +0.071*[#  42]+0.062*[#  23]+0.062*[#  24]+0.061*[#  22]+0.061*[#  25]
          +0.043*[#  29]+0.043*[#  30]+0.043*[#  37]+0.043*[#  38]+0.021*[#  32]
          +0.021*[#  33]+0.021*[#  40]+0.021*[#  41]+0.013*[#  17]+0.013*[#  20]
          
    |psi|^2 = 0.982
==== e(  34) =     3.06689 eV ==== 
     psi = 0.131*[#  22]+0.131*[#  25]+0.063*[#  31]+0.063*[#  34]+0.063*[#  39]
          +0.063*[#  42]+0.047*[#  29]+0.047*[#  30]+0.047*[#  37]+0.047*[#  38]
          +0.036*[#  18]+0.036*[#  19]+0.028*[#  17]+0.028*[#  20]+0.026*[#  23]
          +0.026*[#  24]+0.024*[#  32]+0.024*[#  33]+0.024*[#  40]+0.024*[#  41]
          
    |psi|^2 = 0.981

 k =   0.0250000000  0.3319764050 -0.0876501565
==== e(   1) =   -61.36026 eV ==== 
     psi = 0.451*[#   1]+0.451*[#   2]+0.019*[#  13]+0.019*[#  16]+0.012*[#  11]
          +0.012*[#  12]+0.006*[#  14]+0.006*[#  15]+0.005*[#   3]+0.005*[#   4]
          +0.002*[#  32]+0.002*[#  33]+0.002*[#  40]+0.002*[#  41]+0.001*[#  29]
          +0.001*[#  30]+0.001*[#  37]+0.001*[#  38]
    |psi|^2 = 1.000
==== e(   2) =   -61.36026 eV ==== 
     psi = 0.451*[#   1]+0.451*[#   2]+0.019*[#  13]+0.019*[#  16]+0.012*[#  11]
          +0.012*[#  12]+0.006*[#  14]+0.006*[#  15]+0.005*[#   3]+0.005*[#   4]
          +0.002*[#  32]+0.002*[#  33]+0.002*[#  40]+0.002*[#  41]+0.001*[#  29]
          +0.001*[#  30]+0.001*[#  37]+0.001*[#  38]
    |psi|^2 = 1.000
==== e(   3) =   -37.26408 eV ==== 
     psi = 0.488*[#   5]+0.488*[#   6]+0.003*[#  13]+0.003*[#  16]+0.001*[#   3]
          +0.001*[#   4]+0.001*[#  32]+0.001*[#  33]+0.001*[#  40]+0.001*[#  41]
          
    |psi|^2 = 1.000
==== e(   4) =   -37.26235 eV ==== 
     psi = 0.488*[#   5]+0.488*[#   6]+0.003*[#  13]+0.003*[#  16]+0.001*[#   3]
          +0.001*[#   4]+0.001*[#  31]+0.001*[#  32]+0.001*[#  33]+0.001*[#  34]
          +0.001*[#  39]+0.001*[#  40]+0.001*[#  41]+0.001*[#  42]
    |psi|^2 = 1.000
==== e(   5) =   -34.79512 eV ==== 
     psi = 0.287*[#   8]+0.287*[#   9]+0.199*[#   7]+0.199*[#  10]+0.003*[#   3]
          +0.003*[#   4]+0.002*[#  29]+0.002*[#  30]+0.002*[#  37]+0.002*[#  38]
          +0.001*[#  27]+0.001*[#  28]+0.001*[#  35]+0.001*[#  36]
    |psi|^2 = 1.000
==== e(   6) =   -34.79433 eV ==== 
     psi = 0.297*[#   8]+0.297*[#   9]+0.189*[#   7]+0.189*[#  10]+0.003*[#   3]
          +0.003*[#   4]+0.002*[#  29]+0.002*[#  30]+0.002*[#  37]+0.002*[#  38]
          +0.001*[#  27]+0.001*[#  28]+0.001*[#  35]+0.001*[#  36]
    |psi|^2 = 1.000
==== e(   7) =   -34.67911 eV ==== 
     psi = 0.286*[#   7]+0.286*[#  10]+0.201*[#   8]+0.201*[#   9]+0.003*[#  11]
[...]
          +0.008*[#  41]+0.008*[#  18]+0.008*[#  19]+0.004*[#  31]+0.004*[#  34]
          +0.004*[#  39]+0.004*[#  42]+0.002*[#  13]+0.002*[#  16]
    |psi|^2 = 0.994
==== e(  29) =     2.03341 eV ==== 
     psi = 0.125*[#  23]+0.125*[#  24]+0.105*[#  18]+0.105*[#  19]+0.092*[#  17]
          +0.092*[#  20]+0.033*[#  21]+0.033*[#  26]+0.021*[#  31]+0.021*[#  34]
          +0.021*[#  39]+0.021*[#  42]+0.019*[#  22]+0.019*[#  25]+0.015*[#  32]
          +0.015*[#  33]+0.015*[#  40]+0.015*[#  41]+0.012*[#  29]+0.012*[#  30]
          +0.012*[#  37]+0.012*[#  38]+0.006*[#   3]+0.006*[#   4]+0.003*[#  11]
          +0.003*[#  12]+0.003*[#  13]+0.003*[#  16]+0.002*[#  27]+0.002*[#  28]
          +0.002*[#  35]+0.002*[#  36]
    |psi|^2 = 0.977
==== e(  30) =     2.10080 eV ==== 
     psi = 0.176*[#  21]+0.176*[#  26]+0.109*[#  23]+0.109*[#  24]+0.087*[#  18]
          +0.087*[#  19]+0.017*[#  29]+0.017*[#  30]+0.017*[#  37]+0.017*[#  38]
          +0.015*[#  32]+0.015*[#  33]+0.015*[#  40]+0.015*[#  41]+0.014*[#  31]
          +0.014*[#  34]+0.014*[#  39]+0.014*[#  42]+0.006*[#  17]+0.006*[#  20]
          +0.005*[#   3]+0.005*[#   4]+0.003*[#  11]+0.003*[#  12]+0.003*[#  13]
          +0.003*[#  16]+0.002*[#  27]+0.002*[#  28]+0.002*[#  35]+0.002*[#  36]
          +0.001*[#  14]+0.001*[#  15]+0.001*[#  22]+0.001*[#  25]
    |psi|^2 = 0.976
==== e(  31) =     3.19802 eV ==== 
     psi = 0.100*[#  18]+0.100*[#  19]+0.092*[#  23]+0.092*[#  24]+0.040*[#  32]
          +0.040*[#  33]+0.040*[#  40]+0.040*[#  41]+0.032*[#  22]+0.032*[#  25]
          +0.024*[#  27]+0.024*[#  28]+0.024*[#  35]+0.024*[#  36]+0.023*[#  29]
          +0.023*[#  30]+0.023*[#  37]+0.023*[#  38]+0.018*[#  31]+0.018*[#  34]
          +0.018*[#  39]+0.018*[#  42]+0.009*[#  14]+0.009*[#  15]+0.004*[#  11]
          +0.004*[#  12]+0.004*[#  17]+0.004*[#  20]
    |psi|^2 = 0.904
==== e(  32) =     3.22982 eV ==== 
     psi = 0.140*[#  22]+0.140*[#  25]+0.047*[#  32]+0.047*[#  33]+0.047*[#  40]
          +0.047*[#  41]+0.030*[#  29]+0.030*[#  30]+0.030*[#  37]+0.030*[#  38]
          +0.029*[#  18]+0.029*[#  19]+0.029*[#  23]+0.029*[#  24]+0.026*[#  17]
          +0.026*[#  20]+0.025*[#  27]+0.025*[#  28]+0.025*[#  35]+0.025*[#  36]
          +0.009*[#  14]+0.009*[#  15]+0.004*[#  11]+0.004*[#  12]+0.004*[#  31]
          +0.004*[#  34]+0.004*[#  39]+0.004*[#  42]
    |psi|^2 = 0.899
==== e(  33) =     3.48593 eV ==== 
     psi = 0.084*[#  18]+0.084*[#  19]+0.084*[#  31]+0.084*[#  34]+0.084*[#  39]
          +0.084*[#  42]+0.070*[#  23]+0.070*[#  24]+0.055*[#  22]+0.055*[#  25]
          +0.029*[#  29]+0.029*[#  30]+0.029*[#  37]+0.029*[#  38]+0.015*[#  32]
          +0.015*[#  33]+0.015*[#  40]+0.015*[#  41]+0.013*[#  17]+0.013*[#  20]
          
    |psi|^2 = 0.959
==== e(  34) =     3.51269 eV ==== 
     psi = 0.148*[#  22]+0.148*[#  25]+0.059*[#  29]+0.059*[#  30]+0.059*[#  37]
          +0.059*[#  38]+0.037*[#  31]+0.037*[#  34]+0.037*[#  39]+0.037*[#  42]
          +0.032*[#  32]+0.032*[#  33]+0.032*[#  40]+0.032*[#  41]+0.031*[#  17]
          +0.031*[#  20]+0.024*[#  18]+0.024*[#  19]+0.018*[#  23]+0.018*[#  24]
          
    |psi|^2 = 0.954

 k =   0.4750000000 -0.2742413777 -0.0876501565
==== e(   1) =   -61.34584 eV ==== 
     psi = 0.477*[#   1]+0.477*[#   2]+0.009*[#   3]+0.009*[#   4]+0.002*[#  31]
          +0.002*[#  34]+0.002*[#  39]+0.002*[#  42]+0.002*[#  21]+0.002*[#  26]
          +0.002*[#  29]+0.002*[#  30]+0.001*[#  17]+0.001*[#  20]+0.001*[#  37]
          +0.001*[#  38]+0.001*[#  40]+0.001*[#  41]
    |psi|^2 = 1.000
==== e(   2) =   -61.34584 eV ==== 
     psi = 0.477*[#   1]+0.477*[#   2]+0.009*[#   3]+0.009*[#   4]+0.002*[#  31]
          +0.002*[#  34]+0.002*[#  39]+0.002*[#  42]+0.002*[#  21]+0.002*[#  26]
          +0.002*[#  37]+0.002*[#  38]+0.001*[#  17]+0.001*[#  20]+0.001*[#  29]
          +0.001*[#  30]+0.001*[#  32]+0.001*[#  33]
    |psi|^2 = 1.000
==== e(   3) =   -37.30769 eV ==== 
     psi = 0.486*[#   5]+0.486*[#   6]+0.004*[#  13]+0.004*[#  16]+0.002*[#  32]
          +0.002*[#  33]+0.002*[#  40]+0.002*[#  41]+0.001*[#  31]+0.001*[#  34]
          +0.001*[#  39]+0.001*[#  42]
    |psi|^2 = 1.000
==== e(   4) =   -37.30769 eV ==== 
     psi = 0.486*[#   5]+0.486*[#   6]+0.004*[#  13]+0.004*[#  16]+0.002*[#  32]
          +0.002*[#  33]+0.002*[#  40]+0.002*[#  41]+0.001*[#  31]+0.001*[#  34]
          +0.001*[#  39]+0.001*[#  42]
    |psi|^2 = 1.000
==== e(   5) =   -34.87910 eV ==== 
     psi = 0.316*[#   7]+0.316*[#  10]+0.167*[#   8]+0.167*[#   9]+0.005*[#  11]
          +0.005*[#  12]+0.003*[#  37]+0.003*[#  38]+0.003*[#  29]+0.003*[#  30]
          +0.001*[#   5]+0.001*[#   6]+0.001*[#  35]+0.001*[#  36]
    |psi|^2 = 1.000
==== e(   6) =   -34.87910 eV ==== 
     psi = 0.316*[#   7]+0.316*[#  10]+0.167*[#   8]+0.167*[#   9]+0.005*[#  11]
          +0.005*[#  12]+0.003*[#  29]+0.003*[#  30]+0.003*[#  37]+0.003*[#  38]
          +0.001*[#   5]+0.001*[#   6]+0.001*[#  27]+0.001*[#  28]
    |psi|^2 = 1.000
==== e(   7) =   -34.69244 eV ==== 
     psi = 0.319*[#   8]+0.319*[#   9]+0.169*[#   7]+0.169*[#  10]+0.003*[#  14]
          +0.003*[#  15]+0.002*[#  31]+0.002*[#  34]+0.001*[#  13]+0.001*[#  16]
          +0.001*[#  39]+0.001*[#  42]+0.001*[#  40]+0.001*[#  41]
    |psi|^2 = 1.000
==== e(   8) =   -34.69244 eV ==== 
     psi = 0.319*[#   8]+0.319*[#   9]+0.169*[#   7]+0.169*[#  10]+0.003*[#  14]
          +0.003*[#  15]+0.002*[#  39]+0.002*[#  42]+0.001*[#  13]+0.001*[#  16]
          +0.001*[#  31]+0.001*[#  34]+0.001*[#  32]+0.001*[#  33]
    |psi|^2 = 1.000
==== e(   9) =   -12.84585 eV ==== 
     psi = 0.181*[#  35]+0.181*[#  36]+0.169*[#  27]+0.169*[#  28]+0.038*[#  13]
          +0.038*[#  16]+0.028*[#  11]+0.028*[#  12]+0.020*[#  21]+0.020*[#  26]
          +0.015*[#  17]+0.015*[#  20]+0.014*[#   3]+0.014*[#   4]+0.012*[#  14]
          +0.012*[#  15]+0.005*[#  22]+0.005*[#  25]+0.004*[#   7]+0.004*[#  10]
          +0.003*[#  40]+0.003*[#  41]+0.002*[#   5]+0.002*[#   6]+0.002*[#  32]
          +0.002*[#  33]+0.002*[#  29]+0.002*[#  30]+0.001*[#   8]+0.001*[#   9]
          
    |psi|^2 = 0.999
==== e(  10) =   -12.84585 eV ==== 
     psi = 0.181*[#  27]+0.181*[#  28]+0.169*[#  35]+0.169*[#  36]+0.038*[#  13]
          +0.038*[#  16]+0.028*[#  11]+0.028*[#  12]+0.020*[#  21]+0.020*[#  26]
          +0.015*[#  17]+0.015*[#  20]+0.014*[#   3]+0.014*[#   4]+0.012*[#  14]
          +0.012*[#  15]+0.005*[#  22]+0.005*[#  25]+0.004*[#   7]+0.004*[#  10]
          +0.003*[#  32]+0.003*[#  33]+0.002*[#   5]+0.002*[#   6]+0.002*[#  40]
          +0.002*[#  41]+0.002*[#  37]+0.002*[#  38]+0.001*[#   8]+0.001*[#   9]
          
    |psi|^2 = 0.999
==== e(  11) =   -12.65233 eV ==== 
     psi = 0.201*[#  35]+0.201*[#  36]+0.189*[#  27]+0.189*[#  28]+0.038*[#  22]
          +0.038*[#  25]+0.029*[#  18]+0.029*[#  19]+0.020*[#  23]+0.020*[#  24]
          +0.011*[#  17]+0.011*[#  20]+0.006*[#  14]+0.006*[#  15]+0.002*[#  11]
          +0.002*[#  12]
    |psi|^2 = 0.999
==== e(  12) =   -12.65233 eV ==== 
     psi = 0.201*[#  27]+0.201*[#  28]+0.189*[#  35]+0.189*[#  36]+0.038*[#  22]
          +0.038*[#  25]+0.029*[#  18]+0.029*[#  19]+0.020*[#  23]+0.020*[#  24]
          +0.011*[#  17]+0.011*[#  20]+0.006*[#  14]+0.006*[#  15]+0.002*[#  11]
          +0.002*[#  12]
    |psi|^2 = 0.999
==== e(  13) =    -6.46855 eV ==== 
     psi = 0.076*[#  39]+0.076*[#  42]+0.075*[#  31]+0.075*[#  34]+0.058*[#  29]
          +0.058*[#  30]+0.049*[#  37]+0.049*[#  38]+0.039*[#   3]+0.039*[#   4]
          +0.038*[#  21]+0.038*[#  26]+0.033*[#  40]+0.033*[#  41]+0.030*[#  17]
          +0.030*[#  20]+0.023*[#  32]+0.023*[#  33]+0.017*[#  13]+0.017*[#  16]
          +0.013*[#  11]+0.013*[#  12]+0.009*[#  23]+0.009*[#  24]+0.008*[#  22]
          +0.008*[#  25]+0.006*[#  18]+0.006*[#  19]+0.005*[#  14]+0.005*[#  15]
          +0.005*[#   1]+0.005*[#   2]+0.004*[#  27]+0.004*[#  28]+0.004*[#  35]
          +0.004*[#  36]+0.001*[#   7]+0.001*[#  10]
    |psi|^2 = 0.989
==== e(  14) =    -6.46855 eV ==== 
     psi = 0.076*[#  31]+0.076*[#  34]+0.075*[#  39]+0.075*[#  42]+0.058*[#  37]
          +0.058*[#  38]+0.049*[#  29]+0.049*[#  30]+0.039*[#   3]+0.039*[#   4]
          +0.038*[#  21]+0.038*[#  26]+0.033*[#  32]+0.033*[#  33]+0.030*[#  17]
          +0.030*[#  20]+0.023*[#  40]+0.023*[#  41]+0.017*[#  13]+0.017*[#  16]
          +0.013*[#  11]+0.013*[#  12]+0.009*[#  23]+0.009*[#  24]+0.008*[#  22]
          +0.008*[#  25]+0.006*[#  18]+0.006*[#  19]+0.005*[#  14]+0.005*[#  15]
          +0.005*[#   1]+0.005*[#   2]+0.004*[#  27]+0.004*[#  28]+0.004*[#  35]
          +0.004*[#  36]+0.001*[#   7]+0.001*[#  10]
    |psi|^2 = 0.989
==== e(  15) =    -5.47261 eV ==== 
     psi = 0.085*[#  39]+0.085*[#  42]+0.085*[#  31]+0.085*[#  34]+0.063*[#  37]
          +0.063*[#  38]+0.055*[#  29]+0.055*[#  30]+0.041*[#  32]+0.041*[#  33]
          +0.033*[#  40]+0.033*[#  41]+0.031*[#  22]+0.031*[#  25]+0.024*[#  18]
          +0.024*[#  19]+0.019*[#  14]+0.019*[#  15]+0.015*[#  23]+0.015*[#  24]
          +0.011*[#  11]+0.011*[#  12]+0.011*[#  27]+0.011*[#  28]+0.011*[#  35]
          +0.011*[#  36]+0.009*[#  17]+0.009*[#  20]+0.003*[#   8]+0.003*[#   9]
          +0.001*[#   5]+0.001*[#   6]
    |psi|^2 = 0.992
==== e(  16) =    -5.47261 eV ==== 
     psi = 0.085*[#  31]+0.085*[#  34]+0.085*[#  39]+0.085*[#  42]+0.063*[#  29]
          +0.063*[#  30]+0.055*[#  37]+0.055*[#  38]+0.041*[#  40]+0.041*[#  41]
          +0.033*[#  32]+0.033*[#  33]+0.031*[#  22]+0.031*[#  25]+0.024*[#  18]
          +0.024*[#  19]+0.019*[#  14]+0.019*[#  15]+0.015*[#  23]+0.015*[#  24]
          +0.011*[#  11]+0.011*[#  12]+0.011*[#  35]+0.011*[#  36]+0.011*[#  27]
          +0.011*[#  28]+0.009*[#  17]+0.009*[#  20]+0.003*[#   8]+0.003*[#   9]
          +0.001*[#   5]+0.001*[#   6]
    |psi|^2 = 0.992
==== e(  17) =    -4.74455 eV ==== 
     psi = 0.080*[#  32]+0.080*[#  33]+0.068*[#  40]+0.068*[#  41]+0.058*[#  21]
          +0.058*[#  26]+0.050*[#  17]+0.050*[#  20]+0.047*[#  37]+0.047*[#  38]
          +0.047*[#  23]+0.047*[#  24]+0.037*[#  29]+0.037*[#  30]+0.035*[#  18]
          +0.035*[#  19]+0.017*[#  27]+0.017*[#  28]+0.017*[#  35]+0.017*[#  36]
          +0.011*[#  22]+0.011*[#  25]+0.010*[#  31]+0.010*[#  34]+0.010*[#  39]
          +0.010*[#  42]+0.002*[#   3]+0.002*[#   4]+0.002*[#   7]+0.002*[#  10]
          +0.001*[#   5]+0.001*[#   6]
    |psi|^2 = 0.990
==== e(  18) =    -4.74455 eV ==== 
     psi = 0.080*[#  40]+0.080*[#  41]+0.068*[#  32]+0.068*[#  33]+0.058*[#  21]
          +0.058*[#  26]+0.050*[#  17]+0.050*[#  20]+0.047*[#  29]+0.047*[#  30]
          +0.047*[#  23]+0.047*[#  24]+0.037*[#  37]+0.037*[#  38]+0.035*[#  18]
          +0.035*[#  19]+0.017*[#  35]+0.017*[#  36]+0.017*[#  27]+0.017*[#  28]
          +0.011*[#  22]+0.011*[#  25]+0.010*[#  39]+0.010*[#  42]+0.010*[#  31]
          +0.010*[#  34]+0.002*[#   3]+0.002*[#   4]+0.002*[#   7]+0.002*[#  10]
          +0.001*[#   5]+0.001*[#   6]
    |psi|^2 = 0.990
==== e(  19) =    -3.84481 eV ==== 
     psi = 0.100*[#  22]+0.100*[#  25]+0.082*[#  18]+0.082*[#  19]+0.059*[#  39]
          +0.059*[#  42]+0.059*[#  31]+0.059*[#  34]+0.052*[#  23]+0.052*[#  24]
          +0.042*[#  29]+0.042*[#  30]+0.042*[#  37]+0.042*[#  38]+0.026*[#  17]
          +0.026*[#  20]+0.018*[#  40]+0.018*[#  41]+0.018*[#  32]+0.018*[#  33]
          
    |psi|^2 = 0.993
==== e(  20) =    -3.84481 eV ==== 
     psi = 0.100*[#  22]+0.100*[#  25]+0.082*[#  18]+0.082*[#  19]+0.059*[#  31]
          +0.059*[#  34]+0.059*[#  39]+0.059*[#  42]+0.052*[#  23]+0.052*[#  24]
          +0.042*[#  29]+0.042*[#  30]+0.042*[#  37]+0.042*[#  38]+0.026*[#  17]
          +0.026*[#  20]+0.018*[#  32]+0.018*[#  33]+0.018*[#  40]+0.018*[#  41]
          
    |psi|^2 = 0.993
==== e(  21) =    -2.53655 eV ==== 
     psi = 0.112*[#  32]+0.112*[#  33]+0.103*[#  40]+0.103*[#  41]+0.078*[#  37]
          +0.078*[#  38]+0.068*[#  29]+0.068*[#  30]+0.026*[#  22]+0.026*[#  25]
          +0.020*[#  31]+0.020*[#  34]+0.019*[#  18]+0.019*[#  19]+0.019*[#  39]
          +0.019*[#  42]+0.013*[#  27]+0.013*[#  28]+0.013*[#  35]+0.013*[#  36]
          +0.012*[#  23]+0.012*[#  24]+0.009*[#  17]+0.009*[#  20]+0.002*[#  11]
          +0.002*[#  12]+0.002*[#  14]+0.002*[#  15]+0.001*[#   8]+0.001*[#   9]
          
    |psi|^2 = 0.994
==== e(  22) =    -2.53655 eV ==== 
     psi = 0.112*[#  40]+0.112*[#  41]+0.103*[#  32]+0.103*[#  33]+0.078*[#  29]
          +0.078*[#  30]+0.068*[#  37]+0.068*[#  38]+0.026*[#  22]+0.026*[#  25]
          +0.020*[#  39]+0.020*[#  42]+0.019*[#  18]+0.019*[#  19]+0.019*[#  31]
          +0.019*[#  34]+0.013*[#  27]+0.013*[#  28]+0.013*[#  35]+0.013*[#  36]
          +0.012*[#  23]+0.012*[#  24]+0.009*[#  17]+0.009*[#  20]+0.002*[#  11]
          +0.002*[#  12]+0.002*[#  14]+0.002*[#  15]+0.001*[#   8]+0.001*[#   9]
          
    |psi|^2 = 0.994
==== e(  23) =    -1.63847 eV ==== 
     psi = 0.099*[#  39]+0.099*[#  42]+0.098*[#  31]+0.098*[#  34]+0.066*[#  29]
          +0.066*[#  30]+0.066*[#  37]+0.066*[#  38]+0.043*[#  32]+0.043*[#  33]
          +0.043*[#  40]+0.043*[#  41]+0.024*[#  17]+0.024*[#  20]+0.015*[#  11]
          +0.015*[#  12]+0.011*[#  21]+0.011*[#  26]+0.009*[#  13]+0.009*[#  16]
          +0.008*[#  22]+0.008*[#  25]+0.007*[#  14]+0.007*[#  15]+0.002*[#  18]
          +0.002*[#  19]+0.002*[#  23]+0.002*[#  24]
    |psi|^2 = 0.994
==== e(  24) =    -1.63847 eV ==== 
     psi = 0.099*[#  31]+0.099*[#  34]+0.098*[#  39]+0.098*[#  42]+0.066*[#  37]
          +0.066*[#  38]+0.066*[#  29]+0.066*[#  30]+0.044*[#  32]+0.044*[#  33]
          +0.043*[#  40]+0.043*[#  41]+0.024*[#  17]+0.024*[#  20]+0.015*[#  11]
          +0.015*[#  12]+0.011*[#  21]+0.011*[#  26]+0.009*[#  13]+0.009*[#  16]
          +0.008*[#  22]+0.008*[#  25]+0.007*[#  14]+0.007*[#  15]+0.002*[#  18]
          +0.002*[#  19]+0.002*[#  23]+0.002*[#  24]
    |psi|^2 = 0.994
==== e(  25) =    -1.34041 eV ==== 
     psi = 0.089*[#  23]+0.089*[#  24]+0.059*[#  40]+0.059*[#  41]+0.058*[#  32]
          +0.058*[#  33]+0.056*[#  18]+0.056*[#  19]+0.053*[#  21]+0.053*[#  26]
          +0.031*[#  13]+0.031*[#  16]+0.029*[#  17]+0.029*[#  20]+0.029*[#  29]
          +0.029*[#  30]+0.028*[#  37]+0.028*[#  38]+0.015*[#  11]+0.015*[#  12]
          +0.008*[#  22]+0.008*[#  25]+0.007*[#  31]+0.007*[#  34]+0.007*[#  39]
          +0.007*[#  42]+0.007*[#  14]+0.007*[#  15]+0.005*[#  27]+0.005*[#  28]
          +0.005*[#  35]+0.005*[#  36]+0.003*[#   7]+0.003*[#  10]+0.001*[#   5]
          +0.001*[#   6]
    |psi|^2 = 0.983
==== e(  26) =    -1.34041 eV ==== 
     psi = 0.089*[#  23]+0.089*[#  24]+0.059*[#  32]+0.059*[#  33]+0.058*[#  40]
          +0.058*[#  41]+0.056*[#  18]+0.056*[#  19]+0.053*[#  21]+0.053*[#  26]
          +0.031*[#  13]+0.031*[#  16]+0.029*[#  17]+0.029*[#  20]+0.029*[#  37]
          +0.029*[#  38]+0.028*[#  29]+0.028*[#  30]+0.015*[#  11]+0.015*[#  12]
          +0.008*[#  22]+0.008*[#  25]+0.007*[#  31]+0.007*[#  34]+0.007*[#  39]
          +0.007*[#  42]+0.007*[#  14]+0.007*[#  15]+0.005*[#  27]+0.005*[#  28]
          +0.005*[#  35]+0.005*[#  36]+0.003*[#   7]+0.003*[#  10]+0.001*[#   5]
          +0.001*[#   6]
    |psi|^2 = 0.983
==== e(  27) =     1.53404 eV ==== 
     psi = 0.206*[#  17]+0.206*[#  20]+0.200*[#  21]+0.200*[#  26]+0.045*[#  22]
          +0.045*[#  25]+0.013*[#  31]+0.013*[#  34]+0.013*[#  39]+0.013*[#  42]
          +0.006*[#  37]+0.006*[#  38]+0.005*[#  29]+0.005*[#  30]+0.002*[#  32]
          +0.002*[#  33]+0.002*[#  18]+0.002*[#  19]+0.002*[#  23]+0.002*[#  24]
          +0.001*[#  13]+0.001*[#  16]+0.001*[#  40]+0.001*[#  41]
    |psi|^2 = 0.995
==== e(  28) =     1.53404 eV ==== 
     psi = 0.206*[#  17]+0.206*[#  20]+0.200*[#  21]+0.200*[#  26]+0.045*[#  22]
          +0.045*[#  25]+0.013*[#  39]+0.013*[#  42]+0.013*[#  31]+0.013*[#  34]
          +0.006*[#  29]+0.006*[#  30]+0.005*[#  37]+0.005*[#  38]+0.002*[#  40]
          +0.002*[#  41]+0.002*[#  18]+0.002*[#  19]+0.002*[#  23]+0.002*[#  24]
          +0.001*[#  13]+0.001*[#  16]+0.001*[#  32]+0.001*[#  33]
    |psi|^2 = 0.995
==== e(  29) =     2.03815 eV ==== 
     psi = 0.130*[#  23]+0.130*[#  24]+0.107*[#  18]+0.107*[#  19]+0.096*[#  21]
          +0.096*[#  26]+0.033*[#  17]+0.033*[#  20]+0.022*[#  32]+0.022*[#  33]
          +0.021*[#  37]+0.021*[#  38]+0.019*[#  31]+0.019*[#  34]+0.019*[#  39]
          +0.019*[#  42]+0.010*[#  29]+0.010*[#  30]+0.008*[#  40]+0.008*[#  41]
          +0.006*[#  22]+0.006*[#  25]+0.006*[#   3]+0.006*[#   4]+0.003*[#  11]
          +0.003*[#  12]+0.002*[#  13]+0.002*[#  16]+0.002*[#  27]+0.002*[#  28]
          +0.002*[#  35]+0.002*[#  36]
    |psi|^2 = 0.974
==== e(  30) =     2.03815 eV ==== 
     psi = 0.130*[#  23]+0.130*[#  24]+0.107*[#  18]+0.107*[#  19]+0.096*[#  21]
          +0.096*[#  26]+0.033*[#  17]+0.033*[#  20]+0.022*[#  40]+0.022*[#  41]
          +0.021*[#  29]+0.021*[#  30]+0.019*[#  39]+0.019*[#  42]+0.019*[#  31]
          +0.019*[#  34]+0.010*[#  37]+0.010*[#  38]+0.008*[#  32]+0.008*[#  33]
          +0.006*[#  22]+0.006*[#  25]+0.006*[#   3]+0.006*[#   4]+0.003*[#  11]
          +0.003*[#  12]+0.002*[#  13]+0.002*[#  16]+0.002*[#  35]+0.002*[#  36]
          +0.002*[#  27]+0.002*[#  28]
    |psi|^2 = 0.974
==== e(  31) =     3.15439 eV ==== 
     psi = 0.085*[#  22]+0.085*[#  25]+0.062*[#  18]+0.062*[#  19]+0.059*[#  23]
          +0.059*[#  24]+0.044*[#  40]+0.044*[#  41]+0.044*[#  32]+0.044*[#  33]
          +0.028*[#  29]+0.028*[#  30]+0.026*[#  37]+0.026*[#  38]+0.025*[#  27]
          +0.025*[#  28]+0.025*[#  35]+0.025*[#  36]+0.014*[#  17]+0.014*[#  20]
          +0.011*[#  31]+0.011*[#  34]+0.010*[#  39]+0.010*[#  42]+0.010*[#  14]
          +0.010*[#  15]+0.004*[#  11]+0.004*[#  12]
    |psi|^2 = 0.898
==== e(  32) =     3.15440 eV ==== 
     psi = 0.085*[#  22]+0.085*[#  25]+0.062*[#  18]+0.062*[#  19]+0.059*[#  23]
          +0.059*[#  24]+0.044*[#  32]+0.044*[#  33]+0.044*[#  40]+0.044*[#  41]
          +0.028*[#  37]+0.028*[#  38]+0.026*[#  29]+0.026*[#  30]+0.025*[#  35]
          +0.025*[#  36]+0.025*[#  27]+0.025*[#  28]+0.014*[#  17]+0.014*[#  20]
          +0.011*[#  39]+0.011*[#  42]+0.010*[#  31]+0.010*[#  34]+0.010*[#  14]
          +0.010*[#  15]+0.004*[#  11]+0.004*[#  12]
    |psi|^2 = 0.898
==== e(  33) =     3.60873 eV ==== 
     psi = 0.102*[#  22]+0.102*[#  25]+0.063*[#  31]+0.063*[#  34]+0.063*[#  39]
          +0.063*[#  42]+0.057*[#  18]+0.057*[#  19]+0.045*[#  23]+0.045*[#  24]
          +0.045*[#  29]+0.045*[#  30]+0.044*[#  37]+0.044*[#  38]+0.023*[#  17]
          +0.023*[#  20]+0.023*[#  40]+0.023*[#  41]+0.023*[#  32]+0.023*[#  33]
          
    |psi|^2 = 0.976
==== e(  34) =     3.60873 eV ==== 
     psi = 0.102*[#  22]+0.102*[#  25]+0.063*[#  39]+0.063*[#  42]+0.063*[#  31]
          +0.063*[#  34]+0.057*[#  18]+0.057*[#  19]+0.045*[#  23]+0.045*[#  24]
          +0.045*[#  37]+0.045*[#  38]+0.044*[#  29]+0.044*[#  30]+0.023*[#  17]
          +0.023*[#  20]+0.023*[#  32]+0.023*[#  33]+0.023*[#  40]+0.023*[#  41]
          
    |psi|^2 = 0.976

Lowdin Charges: 

     Atom #   1: total charge =  14.5023, s =  2.3120, 
     Atom #   1: total charge =  14.5023, p =  7.0552, 
     Atom #   1: total charge =  14.5023, d =  5.1351, 
     Atom #   2: total charge =   5.6829, s =  1.5741, 
     Atom #   2: total charge =   5.6829, p =  4.1088, 
     Atom #   2: total charge =   5.6829, d =  0.0000, 
     Atom #   3: total charge =   5.6829, s =  1.5741, 
     Atom #   3: total charge =   5.6829, p =  4.1088, 
     Atom #   3: total charge =   5.6829, d =  0.0000, 
     Spilling Parameter:   0.0051

     PROJWFC      :     10.30s CPU     11.63s WALL


   This run was terminated on:  13:12:42  19Jun2025            

=------------------------------------------------------------------------------=
   JOB DONE.
=------------------------------------------------------------------------------=
