
     Program BANDS v.7.2 starts on 19Jun2025 at 12:27:14 

     This program is part of the open-source Quantum ESPRESSO suite
     for quantum simulation of materials; please cite
         "P. Giannozzi et al., J. Phys.:Condens. Matter 21 395502 (2009);
         "P. Giannozzi et al., J. Phys.:Condens. Matter 29 465901 (2017);
         "P. Giannozzi et al., J. Chem. Phys. 152 154105 (2020);
          URL http://www.quantum-espresso.org", 
     in publications or presentations arising from this work. More details at
     http://www.quantum-espresso.org/quote

     Parallel version (MPI & OpenMP), running on      20 processor cores
     Number of MPI processes:                20
     Threads/MPI process:                     1

     MPI processes distributed on     1 nodes
     R & G space division:  proc/nbgrp/npool/nimage =      20
     99992 MiB available memory on the printing compute node when the environment starts


     Reading xml data from directory:

     ./tmp/mos2.save/

     IMPORTANT: XC functional enforced from input :
     Exchange-correlation= PZ
                           (   1   1   0   0   0   0   0)
     Any further DFT definition will be discarded
     Please, verify this is what you really want


     Parallelization info
     --------------------
     sticks:   dense  smooth     PW     G-vecs:    dense   smooth      PW
     Min         150      59     17                37712     9523    1427
     Max         151      60     18                37728     9544    1439
     Sum        3001    1189    349               754435   190631   28675

     Using Slab Decomposition


     negative rho (up, down):  5.548E-05 0.000E+00
     Reading collected, re-writing distributed wavefunctions
     high-symmetry point:  0.0000 0.0000 0.0000   x coordinate   0.0000
     high-symmetry point:  0.5000 0.2887 0.0000   x coordinate   0.5774
     high-symmetry point:  0.3330 0.5768 0.0000   x coordinate   0.9104
     high-symmetry point:  0.0000 0.0000 0.0000   x coordinate   1.5764

     Plottable bands (eV) written to file mos2.bands1.dat.gnu
     Bands written to file mos2.bands1.dat

 **************************************************************************

                    xk=(   0.00000,   0.00000,   0.00000  )

     double point group C_3v (3m)  
     there are  6 classes and  3 irreducible representations
     the character table:

       E     -E    2C3   -2C3  3s_v  -3s_v
                                          
G_4    2.00 -2.00  1.00 -1.00  0.00  0.00
G_5    1.00 -1.00 -1.00  1.00  0.00  0.00
G_6    1.00 -1.00 -1.00  1.00  0.00  0.00

     imaginary part

       E     -E    2C3   -2C3  3s_v  -3s_v
                                          
G_4    0.00  0.00  0.00  0.00  0.00  0.00
G_5    0.00  0.00  0.00  0.00  1.00 -1.00
G_6    0.00  0.00  0.00  0.00 -1.00  1.00

     the symmetry operations in each class and the name of the first element:

     E             1
                                                                 
     -E           -1
                                                                 
     2C3           2    3
                                                                 
     -2C3         -2   -3
                                                                 
     3s_v          5    6   -4
                                                                 
     -3s_v         4   -5   -6
                                                                 

     Band symmetry, C_3v (3m)   double point group:

     e(  1 -  2) =    -61.38402  eV     2   --> G_4   L_6      
     e(  3 -  4) =    -37.19596  eV     2   --> G_4   L_6      
     e(  5 -  6) =    -34.72679  eV     2   --> G_4   L_6      
     e(  7 -  8) =    -34.56887  eV     2   --> G_5   L_4      
     e(  7 -  8) =    -34.56887  eV     2   --> G_6   L_5      
     e(  9 - 10) =    -14.72737  eV     2   --> G_4   L_6      
     e( 11 - 12) =    -13.40697  eV     2   --> G_4   L_6      
     e( 13 - 14) =     -6.32004  eV     2   --> G_4   L_6      
     e( 15 - 16) =     -3.33803  eV     2   --> G_5   L_4      
     e( 15 - 16) =     -3.33803  eV     2   --> G_6   L_5      
     e( 17 - 18) =     -3.27218  eV     2   --> G_4   L_6      
     e( 19 - 20) =     -2.45410  eV     2   --> G_4   L_6      
     e( 21 - 22) =     -2.22171  eV     2   --> G_4   L_6      
     e( 23 - 24) =     -2.13498  eV     2   --> G_5   L_4      
     e( 23 - 24) =     -2.13498  eV     2   --> G_6   L_5      
     e( 25 - 26) =     -0.70947  eV     2   --> G_4   L_6      
     e( 27 - 28) =      2.04596  eV     2   --> G_4   L_6      
     e( 29 - 30) =      2.12747  eV     2   --> G_5   L_4      
     e( 29 - 30) =      2.12747  eV     2   --> G_6   L_5      
     e( 31 - 32) =      2.33721  eV     2   --> G_4   L_6      
     e( 33 - 34) =      2.34028  eV     2   --> G_5   L_4      
     e( 33 - 34) =      2.34028  eV     2   --> G_6   L_5      

 **************************************************************************

 **************************************************************************

                    xk=(   0.02500,   0.01443,   0.00000  )

     double point group C_s (m)    
     there are  4 classes and  2 irreducible representations
     the character table:

       E     -E    s     -s   
                              
G_3    1.00 -1.00  0.00  0.00
G_4    1.00 -1.00  0.00  0.00

     imaginary part

       E     -E    s     -s   
                              
G_3    0.00  0.00  1.00 -1.00
G_4    0.00  0.00 -1.00  1.00

     the symmetry operations in each class and the name of the first element:

     E             1
                                                                 
     -E           -1
                                                                 
     s             2
                                                                 
     -s           -2
                                                                 

     Band symmetry, C_s (m)     double point group:

     e(  1 -  2) =    -61.38378  eV     2   --> G_3            
     e(  1 -  2) =    -61.38378  eV     2   --> G_4            
     e(  3 -  4) =    -37.19659  eV     2   --> G_3            
     e(  3 -  4) =    -37.19659  eV     2   --> G_4            
     e(  5 -  6) =    -34.72704  eV     2   --> G_3            
     e(  5 -  6) =    -34.72704  eV     2   --> G_4            
     e(  7 -  8) =    -34.57046  eV     2   --> G_3            
     e(  7 -  8) =    -34.57046  eV     2   --> G_4            
     e(  9 - 10) =    -14.71794  eV     2   --> G_3            
     e(  9 - 10) =    -14.71794  eV     2   --> G_4            
     e( 11 - 12) =    -13.40307  eV     2   --> G_3            
     e( 11 - 12) =    -13.40307  eV     2   --> G_4            
     e( 13 - 14) =     -6.30904  eV     2   --> G_3            
     e( 13 - 14) =     -6.30904  eV     2   --> G_4            
     e( 15 - 16) =     -3.34759  eV     2   --> G_3            
     e( 15 - 16) =     -3.34759  eV     2   --> G_4            
     e( 17 - 18) =     -3.27465  eV     2   --> G_3            
     e( 17 - 18) =     -3.27465  eV     2   --> G_4            
     e( 19 - 20) =     -2.54146  eV     2   --> G_3            
     e( 19 - 20) =     -2.54146  eV     2   --> G_4            
     e( 21 - 22) =     -2.20734  eV     2   --> G_3            
     e( 21 - 22) =     -2.20734  eV     2   --> G_4            
     e( 23 - 24) =     -2.09069  eV     2   --> G_3            
     e( 23 - 24) =     -2.09069  eV     2   --> G_4            
     e( 25 - 26) =     -0.71323  eV     2   --> G_3            
     e( 25 - 26) =     -0.71323  eV     2   --> G_4            
     e( 27 - 28) =      2.04277  eV     2   --> G_3            
     e( 27 - 28) =      2.04277  eV     2   --> G_4            
     e( 29 - 30) =      2.12943  eV     2   --> G_3            
     e( 29 - 30) =      2.12943  eV     2   --> G_4            
     e( 31 - 32) =      2.30815  eV     2   --> G_3            
     e( 31 - 32) =      2.30815  eV     2   --> G_4            
     e( 33 - 34) =      2.32833  eV     2   --> G_3            
     e( 33 - 34) =      2.32833  eV     2   --> G_4            

 **************************************************************************

 **************************************************************************

                    xk=(   0.05000,   0.02887,   0.00000  )

     Band symmetry, C_s (m)     double point group:

     e(  1 -  2) =    -61.38308  eV     2   --> G_3            
     e(  1 -  2) =    -61.38308  eV     2   --> G_4            
     e(  3 -  4) =    -37.19847  eV     2   --> G_3            
     e(  3 -  4) =    -37.19847  eV     2   --> G_4            
     e(  5 -  6) =    -34.72782  eV     2   --> G_3            
     e(  5 -  6) =    -34.72782  eV     2   --> G_4            
     e(  7 -  8) =    -34.57518  eV     2   --> G_3            
     e(  7 -  8) =    -34.57518  eV     2   --> G_4            
     e(  9 - 10) =    -14.68978  eV     2   --> G_3            
     e(  9 - 10) =    -14.68978  eV     2   --> G_4            
     e( 11 - 12) =    -13.39143  eV     2   --> G_3            
     e( 11 - 12) =    -13.39143  eV     2   --> G_4            
     e( 13 - 14) =     -6.27642  eV     2   --> G_3            
     e( 13 - 14) =     -6.27642  eV     2   --> G_4            
     e( 15 - 16) =     -3.39919  eV     2   --> G_3            
     e( 15 - 16) =     -3.39919  eV     2   --> G_4            
     e( 17 - 18) =     -3.25773  eV     2   --> G_3            
     e( 17 - 18) =     -3.25773  eV     2   --> G_4            
     e( 19 - 20) =     -2.70367  eV     2   --> G_3            
     e( 19 - 20) =     -2.70367  eV     2   --> G_4            
     e( 21 - 22) =     -2.24308  eV     2   --> G_3            
     e( 21 - 22) =     -2.24308  eV     2   --> G_4            
     e( 23 - 24) =     -1.97873  eV     2   --> G_3            
     e( 23 - 24) =     -1.97873  eV     2   --> G_4            
     e( 25 - 26) =     -0.72536  eV     2   --> G_3            
     e( 25 - 26) =     -0.72536  eV     2   --> G_4            
     e( 27 - 28) =      2.01135  eV     2   --> G_3            
     e( 27 - 28) =      2.01135  eV     2   --> G_4            
     e( 29 - 30) =      2.15588  eV     2   --> G_3            
     e( 29 - 30) =      2.15588  eV     2   --> G_4            
     e( 31 - 32) =      2.22807  eV     2   --> G_3            
     e( 31 - 32) =      2.22807  eV     2   --> G_4            
     e( 33 - 34) =      2.29734  eV     2   --> G_3            
     e( 33 - 34) =      2.29734  eV     2   --> G_4            

 **************************************************************************

 **************************************************************************

                    xk=(   0.07500,   0.04330,   0.00000  )

     Band symmetry, C_s (m)     double point group:

     e(  1 -  2) =    -61.38193  eV     2   --> G_3            
     e(  1 -  2) =    -61.38193  eV     2   --> G_4            
     e(  3 -  4) =    -37.20157  eV     2   --> G_3            
     e(  3 -  4) =    -37.20157  eV     2   --> G_4            
     e(  5 -  6) =    -34.72919  eV     2   --> G_3            
     e(  5 -  6) =    -34.72919  eV     2   --> G_4            
     e(  7 -  8) =    -34.58279  eV     2   --> G_3            
     e(  7 -  8) =    -34.58279  eV     2   --> G_4            
     e(  9 - 10) =    -14.64328  eV     2   --> G_3            
     e(  9 - 10) =    -14.64328  eV     2   --> G_4            
     e( 11 - 12) =    -13.37221  eV     2   --> G_3            
     e( 11 - 12) =    -13.37221  eV     2   --> G_4            
     e( 13 - 14) =     -6.22336  eV     2   --> G_3            
     e( 13 - 14) =     -6.22336  eV     2   --> G_4            
     e( 15 - 16) =     -3.49681  eV     2   --> G_3            
     e( 15 - 16) =     -3.49681  eV     2   --> G_4            
     e( 17 - 18) =     -3.21359  eV     2   --> G_3            
     e( 17 - 18) =     -3.21359  eV     2   --> G_4            
     e( 19 - 20) =     -2.88452  eV     2   --> G_3            
     e( 19 - 20) =     -2.88452  eV     2   --> G_4            
     e( 21 - 22) =     -2.31387  eV     2   --> G_3            
     e( 21 - 22) =     -2.31387  eV     2   --> G_4            
     e( 23 - 24) =     -1.87013  eV     2   --> G_3            
     e( 23 - 24) =     -1.87013  eV     2   --> G_4            
     e( 25 - 26) =     -0.74832  eV     2   --> G_3            
     e( 25 - 26) =     -0.74832  eV     2   --> G_4            
     e( 27 - 28) =      1.95202  eV     2   --> G_3            
     e( 27 - 28) =      1.95202  eV     2   --> G_4            
     e( 29 - 30) =      2.09117  eV     2   --> G_3            
     e( 29 - 30) =      2.09117  eV     2   --> G_4            
     e( 31 - 32) =      2.22085  eV     2   --> G_3            
     e( 31 - 32) =      2.22085  eV     2   --> G_4            
     e( 33 - 34) =      2.26636  eV     2   --> G_3            
     e( 33 - 34) =      2.26636  eV     2   --> G_4            

 **************************************************************************

 **************************************************************************

                    xk=(   0.10000,   0.05774,   0.00000  )

     Band symmetry, C_s (m)     double point group:

     e(  1 -  2) =    -61.38036  eV     2   --> G_3            
     e(  1 -  2) =    -61.38036  eV     2   --> G_4            
     e(  3 -  4) =    -37.20583  eV     2   --> G_3            
     e(  3 -  4) =    -37.20583  eV     2   --> G_4            
     e(  5 -  6) =    -34.73125  eV     2   --> G_3            
     e(  5 -  6) =    -34.73125  eV     2   --> G_4            
     e(  7 -  8) =    -34.59291  eV     2   --> G_3            
     e(  7 -  8) =    -34.59291  eV     2   --> G_4            
     e(  9 - 10) =    -14.57910  eV     2   --> G_3            
     e(  9 - 10) =    -14.57910  eV     2   --> G_4            
     e( 11 - 12) =    -13.34568  eV     2   --> G_3            
     e( 11 - 12) =    -13.34568  eV     2   --> G_4            
     e( 13 - 14) =     -6.15195  eV     2   --> G_3            
     e( 13 - 14) =     -6.15195  eV     2   --> G_4            
     e( 15 - 16) =     -3.62773  eV     2   --> G_3            
     e( 15 - 16) =     -3.62773  eV     2   --> G_4            
     e( 17 - 18) =     -3.15285  eV     2   --> G_3            
     e( 17 - 18) =     -3.15285  eV     2   --> G_4            
     e( 19 - 20) =     -3.06909  eV     2   --> G_3            
     e( 19 - 20) =     -3.06909  eV     2   --> G_4            
     e( 21 - 22) =     -2.40829  eV     2   --> G_3            
     e( 21 - 22) =     -2.40829  eV     2   --> G_4            
     e( 23 - 24) =     -1.78716  eV     2   --> G_3            
     e( 23 - 24) =     -1.78716  eV     2   --> G_4            
     e( 25 - 26) =     -0.78595  eV     2   --> G_3            
     e( 25 - 26) =     -0.78595  eV     2   --> G_4            
     e( 27 - 27) =      1.88434  eV     1   --> G_4            
     e( 28 - 28) =      1.88446  eV     1   --> G_3            
     e( 29 - 29) =      1.95527  eV     1   --> G_3            
     e( 30 - 30) =      1.95539  eV     1   --> G_4            
     e( 31 - 32) =      2.17127  eV     2   --> G_3            
     e( 31 - 32) =      2.17127  eV     2   --> G_4            
     e( 33 - 34) =      2.34618  eV     2   --> G_3            
     e( 33 - 34) =      2.34618  eV     2   --> G_4            

 **************************************************************************

 **************************************************************************

                    xk=(   0.12500,   0.07217,   0.00000  )

     Band symmetry, C_s (m)     double point group:

     e(  1 -  2) =    -61.37841  eV     2   --> G_3            
     e(  1 -  2) =    -61.37841  eV     2   --> G_4            
     e(  3 -  4) =    -37.21117  eV     2   --> G_3            
     e(  3 -  4) =    -37.21117  eV     2   --> G_4            
     e(  5 -  6) =    -34.73417  eV     2   --> G_3            
     e(  5 -  6) =    -34.73417  eV     2   --> G_4            
     e(  7 -  8) =    -34.60502  eV     2   --> G_3            
     e(  7 -  8) =    -34.60502  eV     2   --> G_4            
     e(  9 - 10) =    -14.49813  eV     2   --> G_3            
     e(  9 - 10) =    -14.49813  eV     2   --> G_4            
     e( 11 - 12) =    -13.31223  eV     2   --> G_3            
     e( 11 - 12) =    -13.31223  eV     2   --> G_4            
     e( 13 - 14) =     -6.06555  eV     2   --> G_3            
     e( 13 - 14) =     -6.06555  eV     2   --> G_4            
     e( 15 - 16) =     -3.78161  eV     2   --> G_3            
     e( 15 - 16) =     -3.78161  eV     2   --> G_4            
     e( 17 - 18) =     -3.27188  eV     2   --> G_3            
     e( 17 - 18) =     -3.27188  eV     2   --> G_4            
     e( 19 - 20) =     -3.06051  eV     2   --> G_3            
     e( 19 - 20) =     -3.06051  eV     2   --> G_4            
     e( 21 - 22) =     -2.51986  eV     2   --> G_3            
     e( 21 - 22) =     -2.51986  eV     2   --> G_4            
     e( 23 - 24) =     -1.73881  eV     2   --> G_3            
     e( 23 - 24) =     -1.73881  eV     2   --> G_4            
     e( 25 - 26) =     -0.84274  eV     2   --> G_3            
     e( 25 - 26) =     -0.84274  eV     2   --> G_4            
     e( 27 - 27) =      1.78422  eV     1   --> G_4            
     e( 28 - 28) =      1.78435  eV     1   --> G_3            
     e( 29 - 29) =      1.86663  eV     1   --> G_3            
     e( 30 - 30) =      1.86677  eV     1   --> G_4            
     e( 31 - 32) =      2.09433  eV     2   --> G_3            
     e( 31 - 32) =      2.09433  eV     2   --> G_4            
     e( 33 - 34) =      2.46169  eV     2   --> G_3            
     e( 33 - 34) =      2.46169  eV     2   --> G_4            

 **************************************************************************

 **************************************************************************

                    xk=(   0.15000,   0.08660,   0.00000  )

     Band symmetry, C_s (m)     double point group:

     e(  1 -  2) =    -61.37613  eV     2   --> G_3            
     e(  1 -  2) =    -61.37613  eV     2   --> G_4            
     e(  3 -  4) =    -37.21748  eV     2   --> G_3            
     e(  3 -  4) =    -37.21748  eV     2   --> G_4            
     e(  5 -  6) =    -34.73822  eV     2   --> G_3            
     e(  5 -  6) =    -34.73822  eV     2   --> G_4            
     e(  7 -  8) =    -34.61841  eV     2   --> G_3            
     e(  7 -  8) =    -34.61841  eV     2   --> G_4            
     e(  9 - 10) =    -14.40158  eV     2   --> G_3            
     e(  9 - 10) =    -14.40158  eV     2   --> G_4            
     e( 11 - 12) =    -13.27236  eV     2   --> G_3            
     e( 11 - 12) =    -13.27236  eV     2   --> G_4            
     e( 13 - 14) =     -5.96920  eV     2   --> G_3            
     e( 13 - 14) =     -5.96920  eV     2   --> G_4            
     e( 15 - 16) =     -3.94838  eV     2   --> G_3            
     e( 15 - 16) =     -3.94838  eV     2   --> G_4            
     e( 17 - 18) =     -3.46709  eV     2   --> G_3            
     e( 17 - 18) =     -3.46709  eV     2   --> G_4            
     e( 19 - 20) =     -2.96321  eV     2   --> G_3            
     e( 19 - 20) =     -2.96321  eV     2   --> G_4            
     e( 21 - 22) =     -2.64277  eV     2   --> G_3            
     e( 21 - 22) =     -2.64277  eV     2   --> G_4            
     e( 23 - 24) =     -1.72885  eV     2   --> G_3            
     e( 23 - 24) =     -1.72885  eV     2   --> G_4            
     e( 25 - 26) =     -0.92251  eV     2   --> G_3            
     e( 25 - 26) =     -0.92251  eV     2   --> G_4            
     e( 27 - 28) =      1.65939  eV     2   --> G_3            
     e( 27 - 28) =      1.65939  eV     2   --> G_4            
     e( 29 - 30) =      1.84932  eV     2   --> G_3            
     e( 29 - 30) =      1.84932  eV     2   --> G_4            
     e( 31 - 32) =      2.00979  eV     2   --> G_3            
     e( 31 - 32) =      2.00979  eV     2   --> G_4            
     e( 33 - 34) =      2.58920  eV     2   --> G_3            
     e( 33 - 34) =      2.58920  eV     2   --> G_4            

 **************************************************************************

 **************************************************************************

                    xk=(   0.17500,   0.10104,   0.00000  )

     Band symmetry, C_s (m)     double point group:

     e(  1 -  2) =    -61.37356  eV     2   --> G_3            
     e(  1 -  2) =    -61.37356  eV     2   --> G_4            
     e(  3 -  4) =    -37.22466  eV     2   --> G_3            
     e(  3 -  4) =    -37.22466  eV     2   --> G_4            
     e(  5 -  6) =    -34.74378  eV     2   --> G_3            
     e(  5 -  6) =    -34.74378  eV     2   --> G_4            
     e(  7 -  8) =    -34.63222  eV     2   --> G_3            
     e(  7 -  8) =    -34.63222  eV     2   --> G_4            
     e(  9 - 10) =    -14.29088  eV     2   --> G_3            
     e(  9 - 10) =    -14.29088  eV     2   --> G_4            
     e( 11 - 12) =    -13.22671  eV     2   --> G_3            
     e( 11 - 12) =    -13.22671  eV     2   --> G_4            
     e( 13 - 14) =     -5.87044  eV     2   --> G_3            
     e( 13 - 14) =     -5.87044  eV     2   --> G_4            
     e( 15 - 16) =     -4.11722  eV     2   --> G_3            
     e( 15 - 16) =     -4.11722  eV     2   --> G_4            
     e( 17 - 18) =     -3.66500  eV     2   --> G_3            
     e( 17 - 18) =     -3.66500  eV     2   --> G_4            
     e( 19 - 20) =     -2.85517  eV     2   --> G_3            
     e( 19 - 20) =     -2.85517  eV     2   --> G_4            
     e( 21 - 22) =     -2.76890  eV     2   --> G_3            
     e( 21 - 22) =     -2.76890  eV     2   --> G_4            
     e( 23 - 24) =     -1.75595  eV     2   --> G_3            
     e( 23 - 24) =     -1.75595  eV     2   --> G_4            
     e( 25 - 26) =     -1.02635  eV     2   --> G_3            
     e( 25 - 26) =     -1.02635  eV     2   --> G_4            
     e( 27 - 28) =      1.55702  eV     2   --> G_3            
     e( 27 - 28) =      1.55702  eV     2   --> G_4            
     e( 29 - 30) =      1.87112  eV     2   --> G_3            
     e( 29 - 30) =      1.87112  eV     2   --> G_4            
     e( 31 - 32) =      1.92756  eV     2   --> G_3            
     e( 31 - 32) =      1.92756  eV     2   --> G_4            
     e( 33 - 34) =      2.72130  eV     2   --> G_3            
     e( 33 - 34) =      2.72130  eV     2   --> G_4            

 **************************************************************************

 **************************************************************************

                    xk=(   0.20000,   0.11547,   0.00000  )

     Band symmetry, C_s (m)     double point group:

     e(  1 -  2) =    -61.37078  eV     2   --> G_3            
     e(  1 -  2) =    -61.37078  eV     2   --> G_4            
     e(  3 -  4) =    -37.23253  eV     2   --> G_3            
     e(  3 -  4) =    -37.23253  eV     2   --> G_4            
     e(  5 -  6) =    -34.75126  eV     2   --> G_3            
     e(  5 -  6) =    -34.75126  eV     2   --> G_4            
     e(  7 -  8) =    -34.64547  eV     2   --> G_3            
     e(  7 -  8) =    -34.64547  eV     2   --> G_4            
     e(  9 - 10) =    -14.16779  eV     2   --> G_3            
     e(  9 - 10) =    -14.16779  eV     2   --> G_4            
     e( 11 - 12) =    -13.17606  eV     2   --> G_3            
     e( 11 - 12) =    -13.17606  eV     2   --> G_4            
     e( 13 - 14) =     -5.78040  eV     2   --> G_3            
     e( 13 - 14) =     -5.78040  eV     2   --> G_4            
     e( 15 - 16) =     -4.27584  eV     2   --> G_3            
     e( 15 - 16) =     -4.27584  eV     2   --> G_4            
     e( 17 - 18) =     -3.86390  eV     2   --> G_3            
     e( 17 - 18) =     -3.86390  eV     2   --> G_4            
     e( 19 - 20) =     -2.90937  eV     2   --> G_3            
     e( 19 - 20) =     -2.90937  eV     2   --> G_4            
     e( 21 - 22) =     -2.72443  eV     2   --> G_3            
     e( 21 - 22) =     -2.72443  eV     2   --> G_4            
     e( 23 - 24) =     -1.81402  eV     2   --> G_3            
     e( 23 - 24) =     -1.81402  eV     2   --> G_4            
     e( 25 - 26) =     -1.15074  eV     2   --> G_3            
     e( 25 - 26) =     -1.15074  eV     2   --> G_4            
     e( 27 - 28) =      1.48805  eV     2   --> G_3            
     e( 27 - 28) =      1.48805  eV     2   --> G_4            
     e( 29 - 30) =      1.82890  eV     2   --> G_3            
     e( 29 - 30) =      1.82890  eV     2   --> G_4            
     e( 31 - 32) =      1.95134  eV     2   --> G_3            
     e( 31 - 32) =      1.95134  eV     2   --> G_4            
     e( 33 - 34) =      2.85233  eV     2   --> G_3            
     e( 33 - 34) =      2.85233  eV     2   --> G_4            

 **************************************************************************

 **************************************************************************

                    xk=(   0.22500,   0.12990,   0.00000  )

     Band symmetry, C_s (m)     double point group:

     e(  1 -  2) =    -61.36785  eV     2   --> G_3            
     e(  1 -  2) =    -61.36785  eV     2   --> G_4            
     e(  3 -  4) =    -37.24093  eV     2   --> G_3            
     e(  3 -  4) =    -37.24093  eV     2   --> G_4            
     e(  5 -  6) =    -34.76104  eV     2   --> G_3            
     e(  5 -  6) =    -34.76104  eV     2   --> G_4            
     e(  7 -  8) =    -34.65726  eV     2   --> G_3            
     e(  7 -  8) =    -34.65726  eV     2   --> G_4            
     e(  9 - 10) =    -14.03437  eV     2   --> G_3            
     e(  9 - 10) =    -14.03437  eV     2   --> G_4            
     e( 11 - 12) =    -13.12134  eV     2   --> G_3            
     e( 11 - 12) =    -13.12134  eV     2   --> G_4            
     e( 13 - 14) =     -5.71450  eV     2   --> G_3            
     e( 13 - 14) =     -5.71450  eV     2   --> G_4            
     e( 15 - 16) =     -4.41002  eV     2   --> G_3            
     e( 15 - 16) =     -4.41002  eV     2   --> G_4            
     e( 17 - 18) =     -4.06252  eV     2   --> G_3            
     e( 17 - 18) =     -4.06252  eV     2   --> G_4            
     e( 19 - 20) =     -3.03940  eV     2   --> G_3            
     e( 19 - 20) =     -3.03940  eV     2   --> G_4            
     e( 21 - 22) =     -2.59561  eV     2   --> G_3            
     e( 21 - 22) =     -2.59561  eV     2   --> G_4            
     e( 23 - 24) =     -1.89385  eV     2   --> G_3            
     e( 23 - 24) =     -1.89385  eV     2   --> G_4            
     e( 25 - 26) =     -1.28680  eV     2   --> G_3            
     e( 25 - 26) =     -1.28680  eV     2   --> G_4            
     e( 27 - 28) =      1.45436  eV     2   --> G_3            
     e( 27 - 28) =      1.45436  eV     2   --> G_4            
     e( 29 - 30) =      1.75010  eV     2   --> G_3            
     e( 29 - 30) =      1.75010  eV     2   --> G_4            
     e( 31 - 32) =      2.05171  eV     2   --> G_3            
     e( 31 - 32) =      2.05171  eV     2   --> G_4            
     e( 33 - 34) =      2.97787  eV     2   --> G_3            
     e( 33 - 34) =      2.97787  eV     2   --> G_4            

 **************************************************************************

 **************************************************************************

                    xk=(   0.25000,   0.14434,   0.00000  )

     Band symmetry, C_s (m)     double point group:

     e(  1 -  2) =    -61.36485  eV     2   --> G_3            
     e(  1 -  2) =    -61.36485  eV     2   --> G_4            
     e(  3 -  4) =    -37.24967  eV     2   --> G_3            
     e(  3 -  4) =    -37.24967  eV     2   --> G_4            
     e(  5 -  6) =    -34.77314  eV     2   --> G_3            
     e(  5 -  6) =    -34.77314  eV     2   --> G_4            
     e(  7 -  8) =    -34.66699  eV     2   --> G_3            
     e(  7 -  8) =    -34.66699  eV     2   --> G_4            
     e(  9 - 10) =    -13.89300  eV     2   --> G_3            
     e(  9 - 10) =    -13.89300  eV     2   --> G_4            
     e( 11 - 12) =    -13.06362  eV     2   --> G_3            
     e( 11 - 12) =    -13.06362  eV     2   --> G_4            
     e( 13 - 14) =     -5.69030  eV     2   --> G_3            
     e( 13 - 14) =     -5.69030  eV     2   --> G_4            
     e( 15 - 16) =     -4.50600  eV     2   --> G_3            
     e( 15 - 16) =     -4.50600  eV     2   --> G_4            
     e( 17 - 18) =     -4.25909  eV     2   --> G_3            
     e( 17 - 18) =     -4.25909  eV     2   --> G_4            
     e( 19 - 20) =     -3.16635  eV     2   --> G_3            
     e( 19 - 20) =     -3.16635  eV     2   --> G_4            
     e( 21 - 22) =     -2.46224  eV     2   --> G_3            
     e( 21 - 22) =     -2.46224  eV     2   --> G_4            
     e( 23 - 24) =     -1.98534  eV     2   --> G_3            
     e( 23 - 24) =     -1.98534  eV     2   --> G_4            
     e( 25 - 26) =     -1.42126  eV     2   --> G_3            
     e( 25 - 26) =     -1.42126  eV     2   --> G_4            
     e( 27 - 28) =      1.45281  eV     2   --> G_3            
     e( 27 - 28) =      1.45281  eV     2   --> G_4            
     e( 29 - 30) =      1.67932  eV     2   --> G_3            
     e( 29 - 30) =      1.67932  eV     2   --> G_4            
     e( 31 - 32) =      2.17928  eV     2   --> G_3            
     e( 31 - 32) =      2.17928  eV     2   --> G_4            
     e( 33 - 34) =      3.09458  eV     2   --> G_3            
     e( 33 - 34) =      3.09458  eV     2   --> G_4            

 **************************************************************************

 **************************************************************************

                    xk=(   0.27500,   0.15877,   0.00000  )

     Band symmetry, C_s (m)     double point group:

     e(  1 -  2) =    -61.36184  eV     2   --> G_3            
     e(  1 -  2) =    -61.36184  eV     2   --> G_4            
     e(  3 -  4) =    -37.25853  eV     2   --> G_3            
     e(  3 -  4) =    -37.25853  eV     2   --> G_4            
     e(  5 -  6) =    -34.78717  eV     2   --> G_3            
     e(  5 -  6) =    -34.78717  eV     2   --> G_4            
     e(  7 -  8) =    -34.67452  eV     2   --> G_3            
     e(  7 -  8) =    -34.67452  eV     2   --> G_4            
     e(  9 - 10) =    -13.74645  eV     2   --> G_3            
     e(  9 - 10) =    -13.74645  eV     2   --> G_4            
     e( 11 - 12) =    -13.00414  eV     2   --> G_3            
     e( 11 - 12) =    -13.00414  eV     2   --> G_4            
     e( 13 - 14) =     -5.71876  eV     2   --> G_3            
     e( 13 - 14) =     -5.71876  eV     2   --> G_4            
     e( 15 - 16) =     -4.55973  eV     2   --> G_3            
     e( 15 - 16) =     -4.55973  eV     2   --> G_4            
     e( 17 - 18) =     -4.45007  eV     2   --> G_3            
     e( 17 - 18) =     -4.45007  eV     2   --> G_4            
     e( 19 - 20) =     -3.28695  eV     2   --> G_3            
     e( 19 - 20) =     -3.28695  eV     2   --> G_4            
     e( 21 - 22) =     -2.33043  eV     2   --> G_3            
     e( 21 - 22) =     -2.33043  eV     2   --> G_4            
     e( 23 - 24) =     -2.07849  eV     2   --> G_3            
     e( 23 - 24) =     -2.07849  eV     2   --> G_4            
     e( 25 - 26) =     -1.53859  eV     2   --> G_3            
     e( 25 - 26) =     -1.53859  eV     2   --> G_4            
     e( 27 - 28) =      1.47663  eV     2   --> G_3            
     e( 27 - 28) =      1.47663  eV     2   --> G_4            
     e( 29 - 30) =      1.62212  eV     2   --> G_3            
     e( 29 - 30) =      1.62212  eV     2   --> G_4            
     e( 31 - 32) =      2.32325  eV     2   --> G_3            
     e( 31 - 32) =      2.32325  eV     2   --> G_4            
     e( 33 - 34) =      3.20021  eV     2   --> G_3            
     e( 33 - 34) =      3.20021  eV     2   --> G_4            

 **************************************************************************

 **************************************************************************

                    xk=(   0.30000,   0.17321,   0.00000  )

     Band symmetry, C_s (m)     double point group:

     e(  1 -  2) =    -61.35891  eV     2   --> G_3            
     e(  1 -  2) =    -61.35891  eV     2   --> G_4            
     e(  3 -  4) =    -37.26729  eV     2   --> G_3            
     e(  3 -  4) =    -37.26729  eV     2   --> G_4            
     e(  5 -  6) =    -34.80234  eV     2   --> G_3            
     e(  5 -  6) =    -34.80234  eV     2   --> G_4            
     e(  7 -  8) =    -34.68009  eV     2   --> G_3            
     e(  7 -  8) =    -34.68009  eV     2   --> G_4            
     e(  9 - 10) =    -13.59789  eV     2   --> G_3            
     e(  9 - 10) =    -13.59789  eV     2   --> G_4            
     e( 11 - 12) =    -12.94431  eV     2   --> G_3            
     e( 11 - 12) =    -12.94431  eV     2   --> G_4            
     e( 13 - 14) =     -5.79510  eV     2   --> G_3            
     e( 13 - 14) =     -5.79510  eV     2   --> G_4            
     e( 15 - 16) =     -4.64601  eV     2   --> G_3            
     e( 15 - 16) =     -4.64601  eV     2   --> G_4            
     e( 17 - 18) =     -4.56884  eV     2   --> G_3            
     e( 17 - 18) =     -4.56884  eV     2   --> G_4            
     e( 19 - 20) =     -3.39907  eV     2   --> G_3            
     e( 19 - 20) =     -3.39907  eV     2   --> G_4            
     e( 21 - 22) =     -2.22465  eV     2   --> G_3            
     e( 21 - 22) =     -2.22465  eV     2   --> G_4            
     e( 23 - 24) =     -2.14645  eV     2   --> G_3            
     e( 23 - 24) =     -2.14645  eV     2   --> G_4            
     e( 25 - 26) =     -1.62386  eV     2   --> G_3            
     e( 25 - 26) =     -1.62386  eV     2   --> G_4            
     e( 27 - 28) =      1.51052  eV     2   --> G_3            
     e( 27 - 28) =      1.51052  eV     2   --> G_4            
     e( 29 - 30) =      1.59005  eV     2   --> G_3            
     e( 29 - 30) =      1.59005  eV     2   --> G_4            
     e( 31 - 32) =      2.47398  eV     2   --> G_3            
     e( 31 - 32) =      2.47398  eV     2   --> G_4            
     e( 33 - 34) =      3.29343  eV     2   --> G_3            
     e( 33 - 34) =      3.29343  eV     2   --> G_4            

 **************************************************************************

 **************************************************************************

                    xk=(   0.32500,   0.18764,   0.00000  )

     Band symmetry, C_s (m)     double point group:

     e(  1 -  2) =    -61.35612  eV     2   --> G_3            
     e(  1 -  2) =    -61.35612  eV     2   --> G_4            
     e(  3 -  4) =    -37.27572  eV     2   --> G_3            
     e(  3 -  4) =    -37.27572  eV     2   --> G_4            
     e(  5 -  6) =    -34.81777  eV     2   --> G_3            
     e(  5 -  6) =    -34.81777  eV     2   --> G_4            
     e(  7 -  8) =    -34.68413  eV     2   --> G_3            
     e(  7 -  8) =    -34.68413  eV     2   --> G_4            
     e(  9 - 10) =    -13.45091  eV     2   --> G_3            
     e(  9 - 10) =    -13.45091  eV     2   --> G_4            
     e( 11 - 12) =    -12.88566  eV     2   --> G_3            
     e( 11 - 12) =    -12.88566  eV     2   --> G_4            
     e( 13 - 14) =     -5.90264  eV     2   --> G_3            
     e( 13 - 14) =     -5.90264  eV     2   --> G_4            
     e( 15 - 16) =     -4.81865  eV     2   --> G_3            
     e( 15 - 16) =     -4.81865  eV     2   --> G_4            
     e( 17 - 18) =     -4.57944  eV     2   --> G_3            
     e( 17 - 18) =     -4.57944  eV     2   --> G_4            
     e( 19 - 20) =     -3.50107  eV     2   --> G_3            
     e( 19 - 20) =     -3.50107  eV     2   --> G_4            
     e( 21 - 22) =     -2.26993  eV     2   --> G_3            
     e( 21 - 22) =     -2.26993  eV     2   --> G_4            
     e( 23 - 24) =     -2.06385  eV     2   --> G_3            
     e( 23 - 24) =     -2.06385  eV     2   --> G_4            
     e( 25 - 26) =     -1.66605  eV     2   --> G_3            
     e( 25 - 26) =     -1.66605  eV     2   --> G_4            
     e( 27 - 28) =      1.51465  eV     2   --> G_3            
     e( 27 - 28) =      1.51465  eV     2   --> G_4            
     e( 29 - 30) =      1.61826  eV     2   --> G_3            
     e( 29 - 30) =      1.61826  eV     2   --> G_4            
     e( 31 - 32) =      2.62266  eV     2   --> G_3            
     e( 31 - 32) =      2.62266  eV     2   --> G_4            
     e( 33 - 34) =      3.37371  eV     2   --> G_3            
     e( 33 - 34) =      3.37371  eV     2   --> G_4            

 **************************************************************************

 **************************************************************************

                    xk=(   0.35000,   0.20207,   0.00000  )

     Band symmetry, C_s (m)     double point group:

     e(  1 -  2) =    -61.35354  eV     2   --> G_3            
     e(  1 -  2) =    -61.35354  eV     2   --> G_4            
     e(  3 -  4) =    -37.28360  eV     2   --> G_3            
     e(  3 -  4) =    -37.28360  eV     2   --> G_4            
     e(  5 -  6) =    -34.83265  eV     2   --> G_3            
     e(  5 -  6) =    -34.83265  eV     2   --> G_4            
     e(  7 -  8) =    -34.68701  eV     2   --> G_3            
     e(  7 -  8) =    -34.68701  eV     2   --> G_4            
     e(  9 - 10) =    -13.30956  eV     2   --> G_3            
     e(  9 - 10) =    -13.30956  eV     2   --> G_4            
     e( 11 - 12) =    -12.82987  eV     2   --> G_3            
     e( 11 - 12) =    -12.82987  eV     2   --> G_4            
     e( 13 - 14) =     -6.02378  eV     2   --> G_3            
     e( 13 - 14) =     -6.02378  eV     2   --> G_4            
     e( 15 - 16) =     -4.98108  eV     2   --> G_3            
     e( 15 - 16) =     -4.98108  eV     2   --> G_4            
     e( 17 - 18) =     -4.59214  eV     2   --> G_3            
     e( 17 - 18) =     -4.59214  eV     2   --> G_4            
     e( 19 - 20) =     -3.59166  eV     2   --> G_3            
     e( 19 - 20) =     -3.59166  eV     2   --> G_4            
     e( 21 - 22) =     -2.34133  eV     2   --> G_3            
     e( 21 - 22) =     -2.34133  eV     2   --> G_4            
     e( 23 - 24) =     -1.95645  eV     2   --> G_3            
     e( 23 - 24) =     -1.95645  eV     2   --> G_4            
     e( 25 - 26) =     -1.66164  eV     2   --> G_3            
     e( 25 - 26) =     -1.66164  eV     2   --> G_4            
     e( 27 - 28) =      1.50340  eV     2   --> G_3            
     e( 27 - 28) =      1.50340  eV     2   --> G_4            
     e( 29 - 30) =      1.68696  eV     2   --> G_3            
     e( 29 - 30) =      1.68696  eV     2   --> G_4            
     e( 31 - 32) =      2.76157  eV     2   --> G_3            
     e( 31 - 32) =      2.76157  eV     2   --> G_4            
     e( 33 - 34) =      3.44115  eV     2   --> G_3            
     e( 33 - 34) =      3.44115  eV     2   --> G_4            

 **************************************************************************

 **************************************************************************

                    xk=(   0.37500,   0.21651,   0.00000  )

     Band symmetry, C_s (m)     double point group:

     e(  1 -  2) =    -61.35125  eV     2   --> G_3            
     e(  1 -  2) =    -61.35125  eV     2   --> G_4            
     e(  3 -  4) =    -37.29071  eV     2   --> G_3            
     e(  3 -  4) =    -37.29071  eV     2   --> G_4            
     e(  5 -  6) =    -34.84627  eV     2   --> G_3            
     e(  5 -  6) =    -34.84627  eV     2   --> G_4            
     e(  7 -  8) =    -34.68906  eV     2   --> G_3            
     e(  7 -  8) =    -34.68906  eV     2   --> G_4            
     e(  9 - 10) =    -13.17825  eV     2   --> G_3            
     e(  9 - 10) =    -13.17825  eV     2   --> G_4            
     e( 11 - 12) =    -12.77865  eV     2   --> G_3            
     e( 11 - 12) =    -12.77865  eV     2   --> G_4            
     e( 13 - 14) =     -6.14504  eV     2   --> G_3            
     e( 13 - 14) =     -6.14504  eV     2   --> G_4            
     e( 15 - 16) =     -5.12674  eV     2   --> G_3            
     e( 15 - 16) =     -5.12674  eV     2   --> G_4            
     e( 17 - 18) =     -4.61666  eV     2   --> G_3            
     e( 17 - 18) =     -4.61666  eV     2   --> G_4            
     e( 19 - 20) =     -3.66980  eV     2   --> G_3            
     e( 19 - 20) =     -3.66980  eV     2   --> G_4            
     e( 21 - 22) =     -2.40344  eV     2   --> G_3            
     e( 21 - 22) =     -2.40344  eV     2   --> G_4            
     e( 23 - 24) =     -1.86052  eV     2   --> G_3            
     e( 23 - 24) =     -1.86052  eV     2   --> G_4            
     e( 25 - 26) =     -1.61671  eV     2   --> G_3            
     e( 25 - 26) =     -1.61671  eV     2   --> G_4            
     e( 27 - 28) =      1.49952  eV     2   --> G_3            
     e( 27 - 28) =      1.49952  eV     2   --> G_4            
     e( 29 - 30) =      1.76701  eV     2   --> G_3            
     e( 29 - 30) =      1.76701  eV     2   --> G_4            
     e( 31 - 32) =      2.88439  eV     2   --> G_3            
     e( 31 - 32) =      2.88439  eV     2   --> G_4            
     e( 33 - 34) =      3.49625  eV     2   --> G_3            
     e( 33 - 34) =      3.49625  eV     2   --> G_4            

 **************************************************************************

 **************************************************************************

                    xk=(   0.40000,   0.23094,   0.00000  )

     Band symmetry, C_s (m)     double point group:

     e(  1 -  2) =    -61.34928  eV     2   --> G_3            
     e(  1 -  2) =    -61.34928  eV     2   --> G_4            
     e(  3 -  4) =    -37.29683  eV     2   --> G_3            
     e(  3 -  4) =    -37.29683  eV     2   --> G_4            
     e(  5 -  6) =    -34.85810  eV     2   --> G_3            
     e(  5 -  6) =    -34.85810  eV     2   --> G_4            
     e(  7 -  8) =    -34.69049  eV     2   --> G_3            
     e(  7 -  8) =    -34.69049  eV     2   --> G_4            
     e(  9 - 10) =    -13.06169  eV     2   --> G_3            
     e(  9 - 10) =    -13.06169  eV     2   --> G_4            
     e( 11 - 12) =    -12.73376  eV     2   --> G_3            
     e( 11 - 12) =    -12.73376  eV     2   --> G_4            
     e( 13 - 14) =     -6.25669  eV     2   --> G_3            
     e( 13 - 14) =     -6.25669  eV     2   --> G_4            
     e( 15 - 16) =     -5.25176  eV     2   --> G_3            
     e( 15 - 16) =     -5.25176  eV     2   --> G_4            
     e( 17 - 18) =     -4.65115  eV     2   --> G_3            
     e( 17 - 18) =     -4.65115  eV     2   --> G_4            
     e( 19 - 20) =     -3.73472  eV     2   --> G_3            
     e( 19 - 20) =     -3.73472  eV     2   --> G_4            
     e( 21 - 22) =     -2.45406  eV     2   --> G_3            
     e( 21 - 22) =     -2.45406  eV     2   --> G_4            
     e( 23 - 24) =     -1.77903  eV     2   --> G_3            
     e( 23 - 24) =     -1.77903  eV     2   --> G_4            
     e( 25 - 26) =     -1.54526  eV     2   --> G_3            
     e( 25 - 26) =     -1.54526  eV     2   --> G_4            
     e( 27 - 28) =      1.50411  eV     2   --> G_3            
     e( 27 - 28) =      1.50411  eV     2   --> G_4            
     e( 29 - 30) =      1.84942  eV     2   --> G_3            
     e( 29 - 30) =      1.84942  eV     2   --> G_4            
     e( 31 - 32) =      2.98664  eV     2   --> G_3            
     e( 31 - 32) =      2.98664  eV     2   --> G_4            
     e( 33 - 34) =      3.53977  eV     2   --> G_3            
     e( 33 - 34) =      3.53977  eV     2   --> G_4            

 **************************************************************************

 **************************************************************************

                    xk=(   0.42500,   0.24537,   0.00000  )

     Band symmetry, C_s (m)     double point group:

     e(  1 -  2) =    -61.34770  eV     2   --> G_3            
     e(  1 -  2) =    -61.34770  eV     2   --> G_4            
     e(  3 -  4) =    -37.30180  eV     2   --> G_3            
     e(  3 -  4) =    -37.30180  eV     2   --> G_4            
     e(  5 -  6) =    -34.86770  eV     2   --> G_3            
     e(  5 -  6) =    -34.86770  eV     2   --> G_4            
     e(  7 -  8) =    -34.69146  eV     2   --> G_3            
     e(  7 -  8) =    -34.69146  eV     2   --> G_4            
     e(  9 - 10) =    -12.96459  eV     2   --> G_3            
     e(  9 - 10) =    -12.96459  eV     2   --> G_4            
     e( 11 - 12) =    -12.69683  eV     2   --> G_3            
     e( 11 - 12) =    -12.69683  eV     2   --> G_4            
     e( 13 - 14) =     -6.35140  eV     2   --> G_3            
     e( 13 - 14) =     -6.35140  eV     2   --> G_4            
     e( 15 - 16) =     -5.35282  eV     2   --> G_3            
     e( 15 - 16) =     -5.35282  eV     2   --> G_4            
     e( 17 - 18) =     -4.68881  eV     2   --> G_3            
     e( 17 - 18) =     -4.68881  eV     2   --> G_4            
     e( 19 - 20) =     -3.78580  eV     2   --> G_3            
     e( 19 - 20) =     -3.78580  eV     2   --> G_4            
     e( 21 - 22) =     -2.49293  eV     2   --> G_3            
     e( 21 - 22) =     -2.49293  eV     2   --> G_4            
     e( 23 - 24) =     -1.71390  eV     2   --> G_3            
     e( 23 - 24) =     -1.71390  eV     2   --> G_4            
     e( 25 - 26) =     -1.46441  eV     2   --> G_3            
     e( 25 - 26) =     -1.46441  eV     2   --> G_4            
     e( 27 - 28) =      1.51410  eV     2   --> G_3            
     e( 27 - 28) =      1.51410  eV     2   --> G_4            
     e( 29 - 30) =      1.92743  eV     2   --> G_3            
     e( 29 - 30) =      1.92743  eV     2   --> G_4            
     e( 31 - 32) =      3.06590  eV     2   --> G_3            
     e( 31 - 32) =      3.06590  eV     2   --> G_4            
     e( 33 - 34) =      3.57253  eV     2   --> G_3            
     e( 33 - 34) =      3.57253  eV     2   --> G_4            

 **************************************************************************

 **************************************************************************

                    xk=(   0.45000,   0.25981,   0.00000  )

     Band symmetry, C_s (m)     double point group:

     e(  1 -  2) =    -61.34654  eV     2   --> G_3            
     e(  1 -  2) =    -61.34654  eV     2   --> G_4            
     e(  3 -  4) =    -37.30545  eV     2   --> G_3            
     e(  3 -  4) =    -37.30545  eV     2   --> G_4            
     e(  5 -  6) =    -34.87477  eV     2   --> G_3            
     e(  5 -  6) =    -34.87477  eV     2   --> G_4            
     e(  7 -  8) =    -34.69209  eV     2   --> G_3            
     e(  7 -  8) =    -34.69209  eV     2   --> G_4            
     e(  9 - 10) =    -12.89142  eV     2   --> G_3            
     e(  9 - 10) =    -12.89142  eV     2   --> G_4            
     e( 11 - 12) =    -12.66931  eV     2   --> G_3            
     e( 11 - 12) =    -12.66931  eV     2   --> G_4            
     e( 13 - 14) =     -6.42346  eV     2   --> G_3            
     e( 13 - 14) =     -6.42346  eV     2   --> G_4            
     e( 15 - 16) =     -5.42714  eV     2   --> G_3            
     e( 15 - 16) =     -5.42714  eV     2   --> G_4            
     e( 17 - 18) =     -4.72202  eV     2   --> G_3            
     e( 17 - 18) =     -4.72202  eV     2   --> G_4            
     e( 19 - 20) =     -3.82260  eV     2   --> G_3            
     e( 19 - 20) =     -3.82260  eV     2   --> G_4            
     e( 21 - 22) =     -2.52031  eV     2   --> G_3            
     e( 21 - 22) =     -2.52031  eV     2   --> G_4            
     e( 23 - 24) =     -1.66680  eV     2   --> G_3            
     e( 23 - 24) =     -1.66680  eV     2   --> G_4            
     e( 25 - 26) =     -1.39119  eV     2   --> G_3            
     e( 25 - 26) =     -1.39119  eV     2   --> G_4            
     e( 27 - 28) =      1.52538  eV     2   --> G_3            
     e( 27 - 28) =      1.52538  eV     2   --> G_4            
     e( 29 - 30) =      1.99329  eV     2   --> G_3            
     e( 29 - 30) =      1.99329  eV     2   --> G_4            
     e( 31 - 32) =      3.12160  eV     2   --> G_3            
     e( 31 - 32) =      3.12160  eV     2   --> G_4            
     e( 33 - 34) =      3.59531  eV     2   --> G_3            
     e( 33 - 34) =      3.59531  eV     2   --> G_4            

 **************************************************************************

 **************************************************************************

                    xk=(   0.47500,   0.27424,   0.00000  )

     Band symmetry, C_s (m)     double point group:

     e(  1 -  2) =    -61.34584  eV     2   --> G_3            
     e(  1 -  2) =    -61.34584  eV     2   --> G_4            
     e(  3 -  4) =    -37.30769  eV     2   --> G_3            
     e(  3 -  4) =    -37.30769  eV     2   --> G_4            
     e(  5 -  6) =    -34.87910  eV     2   --> G_3            
     e(  5 -  6) =    -34.87910  eV     2   --> G_4            
     e(  7 -  8) =    -34.69244  eV     2   --> G_3            
     e(  7 -  8) =    -34.69244  eV     2   --> G_4            
     e(  9 - 10) =    -12.84585  eV     2   --> G_3            
     e(  9 - 10) =    -12.84585  eV     2   --> G_4            
     e( 11 - 12) =    -12.65233  eV     2   --> G_3            
     e( 11 - 12) =    -12.65233  eV     2   --> G_4            
     e( 13 - 14) =     -6.46855  eV     2   --> G_3            
     e( 13 - 14) =     -6.46855  eV     2   --> G_4            
     e( 15 - 16) =     -5.47261  eV     2   --> G_3            
     e( 15 - 16) =     -5.47261  eV     2   --> G_4            
     e( 17 - 18) =     -4.74455  eV     2   --> G_3            
     e( 17 - 18) =     -4.74455  eV     2   --> G_4            
     e( 19 - 20) =     -3.84481  eV     2   --> G_3            
     e( 19 - 20) =     -3.84481  eV     2   --> G_4            
     e( 21 - 22) =     -2.53655  eV     2   --> G_3            
     e( 21 - 22) =     -2.53655  eV     2   --> G_4            
     e( 23 - 24) =     -1.63847  eV     2   --> G_3            
     e( 23 - 24) =     -1.63847  eV     2   --> G_4            
     e( 25 - 26) =     -1.34041  eV     2   --> G_3            
     e( 25 - 26) =     -1.34041  eV     2   --> G_4            
     e( 27 - 28) =      1.53404  eV     2   --> G_3            
     e( 27 - 28) =      1.53404  eV     2   --> G_4            
     e( 29 - 30) =      2.03815  eV     2   --> G_3            
     e( 29 - 30) =      2.03815  eV     2   --> G_4            
     e( 31 - 32) =      3.15439  eV     2   --> G_3            
     e( 31 - 32) =      3.15439  eV     2   --> G_4            
     e( 33 - 34) =      3.60873  eV     2   --> G_3            
     e( 33 - 34) =      3.60873  eV     2   --> G_4            

 **************************************************************************

 **************************************************************************

                    xk=(   0.50000,   0.28868,   0.00000  )

     Band symmetry, C_s (m)     double point group:

     e(  1 -  2) =    -61.34560  eV     2   --> G_3            
     e(  1 -  2) =    -61.34560  eV     2   --> G_4            
     e(  3 -  4) =    -37.30845  eV     2   --> G_3            
     e(  3 -  4) =    -37.30845  eV     2   --> G_4            
     e(  5 -  6) =    -34.88056  eV     2   --> G_3            
     e(  5 -  6) =    -34.88056  eV     2   --> G_4            
     e(  7 -  8) =    -34.69255  eV     2   --> G_3            
     e(  7 -  8) =    -34.69255  eV     2   --> G_4            
     e(  9 - 10) =    -12.83037  eV     2   --> G_3            
     e(  9 - 10) =    -12.83037  eV     2   --> G_4            
     e( 11 - 12) =    -12.64659  eV     2   --> G_3            
     e( 11 - 12) =    -12.64659  eV     2   --> G_4            
     e( 13 - 14) =     -6.48389  eV     2   --> G_3            
     e( 13 - 14) =     -6.48389  eV     2   --> G_4            
     e( 15 - 16) =     -5.48792  eV     2   --> G_3            
     e( 15 - 16) =     -5.48792  eV     2   --> G_4            
     e( 17 - 18) =     -4.75249  eV     2   --> G_3            
     e( 17 - 18) =     -4.75249  eV     2   --> G_4            
     e( 19 - 20) =     -3.85223  eV     2   --> G_3            
     e( 19 - 20) =     -3.85223  eV     2   --> G_4            
     e( 21 - 22) =     -2.54193  eV     2   --> G_3            
     e( 21 - 22) =     -2.54193  eV     2   --> G_4            
     e( 23 - 24) =     -1.62903  eV     2   --> G_3            
     e( 23 - 24) =     -1.62903  eV     2   --> G_4            
     e( 25 - 26) =     -1.32227  eV     2   --> G_3            
     e( 25 - 26) =     -1.32227  eV     2   --> G_4            
     e( 27 - 28) =      1.53726  eV     2   --> G_3            
     e( 27 - 28) =      1.53726  eV     2   --> G_4            
     e( 29 - 30) =      2.05418  eV     2   --> G_3            
     e( 29 - 30) =      2.05418  eV     2   --> G_4            
     e( 31 - 32) =      3.16519  eV     2   --> G_3            
     e( 31 - 32) =      3.16519  eV     2   --> G_4            
     e( 33 - 34) =      3.61315  eV     2   --> G_3            
     e( 33 - 34) =      3.61315  eV     2   --> G_4            

 **************************************************************************

 **************************************************************************

                    xk=(   0.49165,   0.30308,   0.00000  )

     double point group C_1 (1)    
     there are  2 classes and  1 irreducible representations
     the character table:

       E     -E   
                  
G_2    1.00 -1.00

     the symmetry operations in each class and the name of the first element:

     E             1
                                                                 
     -E           -1
                                                                 

     Band symmetry, C_1 (1)     double point group:

     e(  1 -  2) =    -61.34557  eV     2   -->   2 G_2            
     e(  3 -  3) =    -37.30945  eV     1   --> G_2            
     e(  4 -  4) =    -37.30754  eV     1   --> G_2            
     e(  5 -  5) =    -34.88155  eV     1   --> G_2            
     e(  6 -  6) =    -34.87929  eV     1   --> G_2            
     e(  7 -  7) =    -34.69316  eV     1   --> G_2            
     e(  8 -  8) =    -34.69270  eV     1   --> G_2            
     e(  9 -  9) =    -12.83144  eV     1   --> G_2            
     e( 10 - 10) =    -12.82650  eV     1   --> G_2            
     e( 11 - 11) =    -12.64588  eV     1   --> G_2            
     e( 12 - 12) =    -12.64552  eV     1   --> G_2            
     e( 13 - 13) =     -6.48117  eV     1   --> G_2            
     e( 14 - 14) =     -6.47838  eV     1   --> G_2            
     e( 15 - 15) =     -5.49180  eV     1   --> G_2            
     e( 16 - 16) =     -5.49065  eV     1   --> G_2            
     e( 17 - 17) =     -4.75194  eV     1   --> G_2            
     e( 18 - 18) =     -4.75005  eV     1   --> G_2            
     e( 19 - 19) =     -3.85406  eV     1   --> G_2            
     e( 20 - 20) =     -3.85214  eV     1   --> G_2            
     e( 21 - 21) =     -2.54171  eV     1   --> G_2            
     e( 22 - 22) =     -2.54031  eV     1   --> G_2            
     e( 23 - 23) =     -1.68403  eV     1   --> G_2            
     e( 24 - 24) =     -1.63721  eV     1   --> G_2            
     e( 25 - 25) =     -1.33171  eV     1   --> G_2            
     e( 26 - 26) =     -1.27868  eV     1   --> G_2            
     e( 27 - 27) =      1.53411  eV     1   --> G_2            
     e( 28 - 28) =      1.54415  eV     1   --> G_2            
     e( 29 - 29) =      2.04418  eV     1   --> G_2            
     e( 30 - 30) =      2.06662  eV     1   --> G_2            
     e( 31 - 31) =      3.16616  eV     1   --> G_2            
     e( 32 - 32) =      3.17569  eV     1   --> G_2            
     e( 33 - 33) =      3.59539  eV     1   --> G_2            
     e( 34 - 34) =      3.60351  eV     1   --> G_2            

 **************************************************************************

 **************************************************************************

                    xk=(   0.48330,   0.31748,   0.00000  )

     Band symmetry, C_1 (1)     double point group:

     e(  1 -  2) =    -61.34549  eV     2   -->   2 G_2            
     e(  3 -  3) =    -37.31055  eV     1   --> G_2            
     e(  4 -  4) =    -37.30674  eV     1   --> G_2            
     e(  5 -  5) =    -34.88227  eV     1   --> G_2            
     e(  6 -  6) =    -34.87775  eV     1   --> G_2            
     e(  7 -  7) =    -34.69449  eV     1   --> G_2            
     e(  8 -  8) =    -34.69361  eV     1   --> G_2            
     e(  9 -  9) =    -12.82972  eV     1   --> G_2            
     e( 10 - 10) =    -12.81987  eV     1   --> G_2            
     e( 11 - 11) =    -12.64341  eV     1   --> G_2            
     e( 12 - 12) =    -12.64269  eV     1   --> G_2            
     e( 13 - 13) =     -6.47022  eV     1   --> G_2            
     e( 14 - 14) =     -6.46467  eV     1   --> G_2            
     e( 15 - 15) =     -5.50225  eV     1   --> G_2            
     e( 16 - 16) =     -5.49998  eV     1   --> G_2            
     e( 17 - 17) =     -4.74842  eV     1   --> G_2            
     e( 18 - 18) =     -4.74467  eV     1   --> G_2            
     e( 19 - 19) =     -3.85742  eV     1   --> G_2            
     e( 20 - 20) =     -3.85355  eV     1   --> G_2            
     e( 21 - 21) =     -2.53979  eV     1   --> G_2            
     e( 22 - 22) =     -2.53714  eV     1   --> G_2            
     e( 23 - 23) =     -1.77730  eV     1   --> G_2            
     e( 24 - 24) =     -1.70918  eV     1   --> G_2            
     e( 25 - 25) =     -1.30574  eV     1   --> G_2            
     e( 26 - 26) =     -1.22527  eV     1   --> G_2            
     e( 27 - 27) =      1.53399  eV     1   --> G_2            
     e( 28 - 28) =      1.55438  eV     1   --> G_2            
     e( 29 - 29) =      2.03690  eV     1   --> G_2            
     e( 30 - 30) =      2.08185  eV     1   --> G_2            
     e( 31 - 31) =      3.17785  eV     1   --> G_2            
     e( 32 - 32) =      3.19758  eV     1   --> G_2            
     e( 33 - 33) =      3.55161  eV     1   --> G_2            
     e( 34 - 34) =      3.56830  eV     1   --> G_2            

 **************************************************************************

 **************************************************************************

                    xk=(   0.47495,   0.33189,   0.00000  )

     Band symmetry, C_1 (1)     double point group:

     e(  1 -  2) =    -61.34537  eV     2   -->   2 G_2            
     e(  3 -  3) =    -37.31173  eV     1   --> G_2            
     e(  4 -  4) =    -37.30604  eV     1   --> G_2            
     e(  5 -  5) =    -34.88274  eV     1   --> G_2            
     e(  6 -  6) =    -34.87593  eV     1   --> G_2            
     e(  7 -  7) =    -34.69651  eV     1   --> G_2            
     e(  8 -  8) =    -34.69527  eV     1   --> G_2            
     e(  9 -  9) =    -12.82528  eV     1   --> G_2            
     e( 10 - 10) =    -12.81057  eV     1   --> G_2            
     e( 11 - 11) =    -12.63922  eV     1   --> G_2            
     e( 12 - 12) =    -12.63814  eV     1   --> G_2            
     e( 13 - 13) =     -6.45112  eV     1   --> G_2            
     e( 14 - 14) =     -6.44281  eV     1   --> G_2            
     e( 15 - 15) =     -5.51918  eV     1   --> G_2            
     e( 16 - 16) =     -5.51585  eV     1   --> G_2            
     e( 17 - 17) =     -4.74202  eV     1   --> G_2            
     e( 18 - 18) =     -4.73646  eV     1   --> G_2            
     e( 19 - 19) =     -3.86167  eV     1   --> G_2            
     e( 20 - 20) =     -3.85583  eV     1   --> G_2            
     e( 21 - 21) =     -2.53668  eV     1   --> G_2            
     e( 22 - 22) =     -2.53308  eV     1   --> G_2            
     e( 23 - 23) =     -1.89431  eV     1   --> G_2            
     e( 24 - 24) =     -1.81980  eV     1   --> G_2            
     e( 25 - 25) =     -1.26779  eV     1   --> G_2            
     e( 26 - 26) =     -1.17484  eV     1   --> G_2            
     e( 27 - 27) =      1.53531  eV     1   --> G_2            
     e( 28 - 28) =      1.56633  eV     1   --> G_2            
     e( 29 - 29) =      2.03342  eV     1   --> G_2            
     e( 30 - 30) =      2.10074  eV     1   --> G_2            
     e( 31 - 31) =      3.19795  eV     1   --> G_2            
     e( 32 - 32) =      3.22971  eV     1   --> G_2            
     e( 33 - 33) =      3.48615  eV     1   --> G_2            
     e( 34 - 34) =      3.51288  eV     1   --> G_2            

 **************************************************************************

 **************************************************************************

                    xk=(   0.46660,   0.34629,   0.00000  )

     Band symmetry, C_1 (1)     double point group:

     e(  1 -  2) =    -61.34519  eV     2   -->   2 G_2            
     e(  3 -  3) =    -37.31298  eV     1   --> G_2            
     e(  4 -  4) =    -37.30545  eV     1   --> G_2            
     e(  5 -  5) =    -34.88298  eV     1   --> G_2            
     e(  6 -  6) =    -34.87383  eV     1   --> G_2            
     e(  7 -  7) =    -34.69917  eV     1   --> G_2            
     e(  8 -  8) =    -34.69766  eV     1   --> G_2            
     e(  9 -  9) =    -12.81820  eV     1   --> G_2            
     e( 10 - 10) =    -12.79871  eV     1   --> G_2            
     e( 11 - 11) =    -12.63339  eV     1   --> G_2            
     e( 12 - 12) =    -12.63197  eV     1   --> G_2            
     e( 13 - 13) =     -6.42398  eV     1   --> G_2            
     e( 14 - 14) =     -6.41293  eV     1   --> G_2            
     e( 15 - 15) =     -5.54241  eV     1   --> G_2            
     e( 16 - 16) =     -5.53809  eV     1   --> G_2            
     e( 17 - 17) =     -4.73291  eV     1   --> G_2            
     e( 18 - 18) =     -4.72563  eV     1   --> G_2            
     e( 19 - 19) =     -3.86587  eV     1   --> G_2            
     e( 20 - 20) =     -3.85801  eV     1   --> G_2            
     e( 21 - 21) =     -2.53322  eV     1   --> G_2            
     e( 22 - 22) =     -2.52918  eV     1   --> G_2            
     e( 23 - 23) =     -2.02881  eV     1   --> G_2            
     e( 24 - 24) =     -1.95359  eV     1   --> G_2            
     e( 25 - 25) =     -1.23058  eV     1   --> G_2            
     e( 26 - 26) =     -1.13087  eV     1   --> G_2            
     e( 27 - 27) =      1.53582  eV     1   --> G_2            
     e( 28 - 28) =      1.57720  eV     1   --> G_2            
     e( 29 - 29) =      2.03566  eV     1   --> G_2            
     e( 30 - 30) =      2.12450  eV     1   --> G_2            
     e( 31 - 31) =      3.21960  eV     1   --> G_2            
     e( 32 - 32) =      3.26701  eV     1   --> G_2            
     e( 33 - 33) =      3.40835  eV     1   --> G_2            
     e( 34 - 34) =      3.44835  eV     1   --> G_2            

 **************************************************************************

 **************************************************************************

                    xk=(   0.45825,   0.36070,   0.00000  )

     Band symmetry, C_1 (1)     double point group:

     e(  1 -  2) =    -61.34497  eV     2   -->   2 G_2            
     e(  3 -  3) =    -37.31429  eV     1   --> G_2            
     e(  4 -  4) =    -37.30498  eV     1   --> G_2            
     e(  5 -  5) =    -34.88300  eV     1   --> G_2            
     e(  6 -  6) =    -34.87146  eV     1   --> G_2            
     e(  7 -  7) =    -34.70241  eV     1   --> G_2            
     e(  8 -  8) =    -34.70075  eV     1   --> G_2            
     e(  9 -  9) =    -12.80864  eV     1   --> G_2            
     e( 10 - 10) =    -12.78447  eV     1   --> G_2            
     e( 11 - 11) =    -12.62602  eV     1   --> G_2            
     e( 12 - 12) =    -12.62427  eV     1   --> G_2            
     e( 13 - 13) =     -6.38894  eV     1   --> G_2            
     e( 14 - 14) =     -6.37520  eV     1   --> G_2            
     e( 15 - 15) =     -5.57163  eV     1   --> G_2            
     e( 16 - 16) =     -5.56643  eV     1   --> G_2            
     e( 17 - 17) =     -4.72130  eV     1   --> G_2            
     e( 18 - 18) =     -4.71245  eV     1   --> G_2            
     e( 19 - 19) =     -3.86892  eV     1   --> G_2            
     e( 20 - 20) =     -3.85902  eV     1   --> G_2            
     e( 21 - 21) =     -2.53051  eV     1   --> G_2            
     e( 22 - 22) =     -2.52690  eV     1   --> G_2            
     e( 23 - 23) =     -2.17696  eV     1   --> G_2            
     e( 24 - 24) =     -2.10371  eV     1   --> G_2            
     e( 25 - 25) =     -1.19748  eV     1   --> G_2            
     e( 26 - 26) =     -1.09336  eV     1   --> G_2            
     e( 27 - 27) =      1.53303  eV     1   --> G_2            
     e( 28 - 28) =      1.58332  eV     1   --> G_2            
     e( 29 - 29) =      2.04617  eV     1   --> G_2            
     e( 30 - 30) =      2.15441  eV     1   --> G_2            
     e( 31 - 31) =      3.21948  eV     1   --> G_2            
     e( 32 - 32) =      3.26521  eV     1   --> G_2            
     e( 33 - 33) =      3.36686  eV     1   --> G_2            
     e( 34 - 34) =      3.40243  eV     1   --> G_2            

 **************************************************************************

 **************************************************************************

                    xk=(   0.44990,   0.37510,   0.00000  )

     Band symmetry, C_1 (1)     double point group:

     e(  1 -  2) =    -61.34471  eV     2   -->   2 G_2            
     e(  3 -  3) =    -37.31566  eV     1   --> G_2            
     e(  4 -  4) =    -37.30461  eV     1   --> G_2            
     e(  5 -  5) =    -34.88284  eV     1   --> G_2            
     e(  6 -  6) =    -34.86884  eV     1   --> G_2            
     e(  7 -  7) =    -34.70614  eV     1   --> G_2            
     e(  8 -  8) =    -34.70450  eV     1   --> G_2            
     e(  9 -  9) =    -12.79679  eV     1   --> G_2            
     e( 10 - 10) =    -12.76807  eV     1   --> G_2            
     e( 11 - 11) =    -12.61727  eV     1   --> G_2            
     e( 12 - 12) =    -12.61519  eV     1   --> G_2            
     e( 13 - 13) =     -6.34623  eV     1   --> G_2            
     e( 14 - 14) =     -6.32983  eV     1   --> G_2            
     e( 15 - 15) =     -5.60637  eV     1   --> G_2            
     e( 16 - 16) =     -5.60042  eV     1   --> G_2            
     e( 17 - 17) =     -4.70751  eV     1   --> G_2            
     e( 18 - 18) =     -4.69726  eV     1   --> G_2            
     e( 19 - 19) =     -3.86973  eV     1   --> G_2            
     e( 20 - 20) =     -3.85777  eV     1   --> G_2            
     e( 21 - 21) =     -2.53005  eV     1   --> G_2            
     e( 22 - 22) =     -2.52929  eV     1   --> G_2            
     e( 23 - 23) =     -2.33420  eV     1   --> G_2            
     e( 24 - 24) =     -2.26591  eV     1   --> G_2            
     e( 25 - 25) =     -1.16850  eV     1   --> G_2            
     e( 26 - 26) =     -1.06109  eV     1   --> G_2            
     e( 27 - 27) =      1.52466  eV     1   --> G_2            
     e( 28 - 28) =      1.58105  eV     1   --> G_2            
     e( 29 - 29) =      2.06734  eV     1   --> G_2            
     e( 30 - 30) =      2.19146  eV     1   --> G_2            
     e( 31 - 31) =      3.16507  eV     1   --> G_2            
     e( 32 - 32) =      3.17755  eV     1   --> G_2            
     e( 33 - 33) =      3.41157  eV     1   --> G_2            
     e( 34 - 34) =      3.41225  eV     1   --> G_2            

 **************************************************************************

 **************************************************************************

                    xk=(   0.44155,   0.38951,   0.00000  )

     Band symmetry, C_1 (1)     double point group:

     e(  1 -  2) =    -61.34441  eV     2   -->   2 G_2            
     e(  3 -  3) =    -37.31706  eV     1   --> G_2            
     e(  4 -  4) =    -37.30436  eV     1   --> G_2            
     e(  5 -  5) =    -34.88252  eV     1   --> G_2            
     e(  6 -  6) =    -34.86598  eV     1   --> G_2            
     e(  7 -  7) =    -34.71027  eV     1   --> G_2            
     e(  8 -  8) =    -34.70884  eV     1   --> G_2            
     e(  9 -  9) =    -12.78287  eV     1   --> G_2            
     e( 10 - 10) =    -12.74976  eV     1   --> G_2            
     e( 11 - 11) =    -12.60730  eV     1   --> G_2            
     e( 12 - 12) =    -12.60491  eV     1   --> G_2            
     e( 13 - 13) =     -6.29607  eV     1   --> G_2            
     e( 14 - 14) =     -6.27707  eV     1   --> G_2            
     e( 15 - 15) =     -5.64599  eV     1   --> G_2            
     e( 16 - 16) =     -5.63944  eV     1   --> G_2            
     e( 17 - 17) =     -4.69188  eV     1   --> G_2            
     e( 18 - 18) =     -4.68049  eV     1   --> G_2            
     e( 19 - 19) =     -3.86733  eV     1   --> G_2            
     e( 20 - 20) =     -3.85332  eV     1   --> G_2            
     e( 21 - 21) =     -2.55906  eV     1   --> G_2            
     e( 22 - 22) =     -2.53644  eV     1   --> G_2            
     e( 23 - 23) =     -2.47643  eV     1   --> G_2            
     e( 24 - 24) =     -2.43373  eV     1   --> G_2            
     e( 25 - 25) =     -1.14251  eV     1   --> G_2            
     e( 26 - 26) =     -1.03238  eV     1   --> G_2            
     e( 27 - 27) =      1.50904  eV     1   --> G_2            
     e( 28 - 28) =      1.56792  eV     1   --> G_2            
     e( 29 - 29) =      2.10035  eV     1   --> G_2            
     e( 30 - 30) =      2.23607  eV     1   --> G_2            
     e( 31 - 31) =      3.07195  eV     1   --> G_2            
     e( 32 - 32) =      3.07620  eV     1   --> G_2            
     e( 33 - 33) =      3.45902  eV     1   --> G_2            
     e( 34 - 34) =      3.47956  eV     1   --> G_2            

 **************************************************************************

 **************************************************************************

                    xk=(   0.43320,   0.40391,   0.00000  )

     Band symmetry, C_1 (1)     double point group:

     e(  1 -  2) =    -61.34408  eV     2   -->   2 G_2            
     e(  3 -  3) =    -37.31849  eV     1   --> G_2            
     e(  4 -  4) =    -37.30421  eV     1   --> G_2            
     e(  5 -  5) =    -34.88207  eV     1   --> G_2            
     e(  6 -  6) =    -34.86289  eV     1   --> G_2            
     e(  7 -  7) =    -34.71471  eV     1   --> G_2            
     e(  8 -  8) =    -34.71370  eV     1   --> G_2            
     e(  9 -  9) =    -12.76716  eV     1   --> G_2            
     e( 10 - 10) =    -12.72985  eV     1   --> G_2            
     e( 11 - 11) =    -12.59630  eV     1   --> G_2            
     e( 12 - 12) =    -12.59362  eV     1   --> G_2            
     e( 13 - 13) =     -6.23878  eV     1   --> G_2            
     e( 14 - 14) =     -6.21722  eV     1   --> G_2            
     e( 15 - 15) =     -5.68966  eV     1   --> G_2            
     e( 16 - 16) =     -5.68267  eV     1   --> G_2            
     e( 17 - 17) =     -4.67484  eV     1   --> G_2            
     e( 18 - 18) =     -4.66263  eV     1   --> G_2            
     e( 19 - 19) =     -3.86097  eV     1   --> G_2            
     e( 20 - 20) =     -3.84496  eV     1   --> G_2            
     e( 21 - 21) =     -2.70156  eV     1   --> G_2            
     e( 22 - 22) =     -2.63112  eV     1   --> G_2            
     e( 23 - 23) =     -2.52411  eV     1   --> G_2            
     e( 24 - 24) =     -2.51681  eV     1   --> G_2            
     e( 25 - 25) =     -1.11805  eV     1   --> G_2            
     e( 26 - 26) =     -1.00549  eV     1   --> G_2            
     e( 27 - 27) =      1.48530  eV     1   --> G_2            
     e( 28 - 28) =      1.54327  eV     1   --> G_2            
     e( 29 - 29) =      2.14463  eV     1   --> G_2            
     e( 30 - 30) =      2.28795  eV     1   --> G_2            
     e( 31 - 31) =      2.96456  eV     1   --> G_2            
     e( 32 - 32) =      2.97774  eV     1   --> G_2            
     e( 33 - 33) =      3.52211  eV     1   --> G_2            
     e( 34 - 34) =      3.55470  eV     1   --> G_2            

 **************************************************************************

 **************************************************************************

                    xk=(   0.42485,   0.41832,   0.00000  )

     Band symmetry, C_1 (1)     double point group:

     e(  1 -  2) =    -61.34373  eV     2   -->   2 G_2            
     e(  3 -  3) =    -37.31993  eV     1   --> G_2            
     e(  4 -  4) =    -37.30417  eV     1   --> G_2            
     e(  5 -  5) =    -34.88155  eV     1   --> G_2            
     e(  6 -  6) =    -34.85961  eV     1   --> G_2            
     e(  7 -  7) =    -34.71935  eV     1   --> G_2            
     e(  8 -  8) =    -34.71899  eV     1   --> G_2            
     e(  9 -  9) =    -12.74998  eV     1   --> G_2            
     e( 10 - 10) =    -12.70868  eV     1   --> G_2            
     e( 11 - 11) =    -12.58450  eV     1   --> G_2            
     e( 12 - 12) =    -12.58156  eV     1   --> G_2            
     e( 13 - 13) =     -6.17471  eV     1   --> G_2            
     e( 14 - 14) =     -6.15065  eV     1   --> G_2            
     e( 15 - 15) =     -5.73636  eV     1   --> G_2            
     e( 16 - 16) =     -5.72911  eV     1   --> G_2            
     e( 17 - 17) =     -4.65691  eV     1   --> G_2            
     e( 18 - 18) =     -4.64430  eV     1   --> G_2            
     e( 19 - 19) =     -3.85021  eV     1   --> G_2            
     e( 20 - 20) =     -3.83225  eV     1   --> G_2            
     e( 21 - 21) =     -2.87917  eV     1   --> G_2            
     e( 22 - 22) =     -2.81158  eV     1   --> G_2            
     e( 23 - 23) =     -2.53786  eV     1   --> G_2            
     e( 24 - 24) =     -2.53129  eV     1   --> G_2            
     e( 25 - 25) =     -1.09369  eV     1   --> G_2            
     e( 26 - 26) =     -0.97877  eV     1   --> G_2            
     e( 27 - 27) =      1.45339  eV     1   --> G_2            
     e( 28 - 28) =      1.50789  eV     1   --> G_2            
     e( 29 - 29) =      2.19826  eV     1   --> G_2            
     e( 30 - 30) =      2.34616  eV     1   --> G_2            
     e( 31 - 31) =      2.86012  eV     1   --> G_2            
     e( 32 - 32) =      2.87929  eV     1   --> G_2            
     e( 33 - 33) =      3.59258  eV     1   --> G_2            
     e( 34 - 34) =      3.63412  eV     1   --> G_2            

 **************************************************************************

 **************************************************************************

                    xk=(   0.41650,   0.43272,   0.00000  )

     Band symmetry, C_1 (1)     double point group:

     e(  1 -  2) =    -61.34337  eV     2   -->   2 G_2            
     e(  3 -  3) =    -37.32136  eV     1   --> G_2            
     e(  4 -  4) =    -37.30421  eV     1   --> G_2            
     e(  5 -  5) =    -34.88097  eV     1   --> G_2            
     e(  6 -  6) =    -34.85618  eV     1   --> G_2            
     e(  7 -  7) =    -34.72463  eV     1   --> G_2            
     e(  8 -  8) =    -34.72407  eV     1   --> G_2            
     e(  9 -  9) =    -12.73169  eV     1   --> G_2            
     e( 10 - 10) =    -12.68663  eV     1   --> G_2            
     e( 11 - 11) =    -12.57215  eV     1   --> G_2            
     e( 12 - 12) =    -12.56897  eV     1   --> G_2            
     e( 13 - 13) =     -6.10430  eV     1   --> G_2            
     e( 14 - 14) =     -6.07778  eV     1   --> G_2            
     e( 15 - 15) =     -5.78495  eV     1   --> G_2            
     e( 16 - 16) =     -5.77761  eV     1   --> G_2            
     e( 17 - 17) =     -4.63868  eV     1   --> G_2            
     e( 18 - 18) =     -4.62622  eV     1   --> G_2            
     e( 19 - 19) =     -3.83485  eV     1   --> G_2            
     e( 20 - 20) =     -3.81508  eV     1   --> G_2            
     e( 21 - 21) =     -3.06193  eV     1   --> G_2            
     e( 22 - 22) =     -2.99867  eV     1   --> G_2            
     e( 23 - 23) =     -2.55227  eV     1   --> G_2            
     e( 24 - 24) =     -2.54776  eV     1   --> G_2            
     e( 25 - 25) =     -1.06819  eV     1   --> G_2            
     e( 26 - 26) =     -0.95083  eV     1   --> G_2            
     e( 27 - 27) =      1.41386  eV     1   --> G_2            
     e( 28 - 28) =      1.46330  eV     1   --> G_2            
     e( 29 - 29) =      2.25863  eV     1   --> G_2            
     e( 30 - 30) =      2.40924  eV     1   --> G_2            
     e( 31 - 31) =      2.76163  eV     1   --> G_2            
     e( 32 - 32) =      2.78550  eV     1   --> G_2            
     e( 33 - 33) =      3.66644  eV     1   --> G_2            
     e( 34 - 34) =      3.71539  eV     1   --> G_2            

 **************************************************************************

 **************************************************************************

                    xk=(   0.40815,   0.44713,   0.00000  )

     Band symmetry, C_1 (1)     double point group:

     e(  1 -  2) =    -61.34300  eV     2   -->   2 G_2            
     e(  3 -  3) =    -37.32276  eV     1   --> G_2            
     e(  4 -  4) =    -37.30434  eV     1   --> G_2            
     e(  5 -  5) =    -34.88039  eV     1   --> G_2            
     e(  6 -  6) =    -34.85262  eV     1   --> G_2            
     e(  7 -  7) =    -34.73050  eV     1   --> G_2            
     e(  8 -  8) =    -34.72874  eV     1   --> G_2            
     e(  9 -  9) =    -12.71269  eV     1   --> G_2            
     e( 10 - 10) =    -12.66413  eV     1   --> G_2            
     e( 11 - 11) =    -12.55952  eV     1   --> G_2            
     e( 12 - 12) =    -12.55613  eV     1   --> G_2            
     e( 13 - 13) =     -6.02815  eV     1   --> G_2            
[...]
     e( 23 - 23) =     -1.61729  eV     1   --> G_2            
     e( 24 - 24) =     -1.58192  eV     1   --> G_2            
     e( 25 - 25) =     -1.30202  eV     1   --> G_2            
     e( 26 - 26) =     -1.26679  eV     1   --> G_2            
     e( 27 - 27) =      1.31413  eV     1   --> G_2            
     e( 28 - 28) =      1.35136  eV     1   --> G_2            
     e( 29 - 29) =      1.74214  eV     1   --> G_2            
     e( 30 - 30) =      1.75331  eV     1   --> G_2            
     e( 31 - 31) =      1.79778  eV     1   --> G_2            
     e( 32 - 32) =      1.84754  eV     1   --> G_2            
     e( 33 - 33) =      3.13324  eV     1   --> G_2            
     e( 34 - 34) =      3.18227  eV     1   --> G_2            

 **************************************************************************

 **************************************************************************

                    xk=(   0.11655,   0.20187,   0.00000  )

     Band symmetry, C_1 (1)     double point group:

     e(  1 -  2) =    -61.37054  eV     2   -->   2 G_2            
     e(  3 -  3) =    -37.23463  eV     1   --> G_2            
     e(  4 -  4) =    -37.23160  eV     1   --> G_2            
     e(  5 -  5) =    -34.75080  eV     1   --> G_2            
     e(  6 -  6) =    -34.74936  eV     1   --> G_2            
     e(  7 -  7) =    -34.65152  eV     1   --> G_2            
     e(  8 -  8) =    -34.64566  eV     1   --> G_2            
     e(  9 -  9) =    -14.16024  eV     1   --> G_2            
     e( 10 - 10) =    -14.15451  eV     1   --> G_2            
     e( 11 - 11) =    -13.17150  eV     1   --> G_2            
     e( 12 - 12) =    -13.17099  eV     1   --> G_2            
     e( 13 - 13) =     -5.76024  eV     1   --> G_2            
     e( 14 - 14) =     -5.75143  eV     1   --> G_2            
     e( 15 - 15) =     -4.27834  eV     1   --> G_2            
     e( 16 - 16) =     -4.27015  eV     1   --> G_2            
     e( 17 - 17) =     -3.75798  eV     1   --> G_2            
     e( 18 - 18) =     -3.74632  eV     1   --> G_2            
     e( 19 - 19) =     -3.21709  eV     1   --> G_2            
     e( 20 - 20) =     -3.21136  eV     1   --> G_2            
     e( 21 - 21) =     -2.78560  eV     1   --> G_2            
     e( 22 - 22) =     -2.74596  eV     1   --> G_2            
     e( 23 - 23) =     -1.60249  eV     1   --> G_2            
     e( 24 - 24) =     -1.56980  eV     1   --> G_2            
     e( 25 - 25) =     -1.15401  eV     1   --> G_2            
     e( 26 - 26) =     -1.13299  eV     1   --> G_2            
     e( 27 - 27) =      1.42355  eV     1   --> G_2            
     e( 28 - 28) =      1.44050  eV     1   --> G_2            
     e( 29 - 29) =      1.71951  eV     1   --> G_2            
     e( 30 - 30) =      1.76311  eV     1   --> G_2            
     e( 31 - 31) =      1.82769  eV     1   --> G_2            
     e( 32 - 32) =      1.85658  eV     1   --> G_2            
     e( 33 - 33) =      2.94799  eV     1   --> G_2            
     e( 34 - 34) =      2.99855  eV     1   --> G_2            

 **************************************************************************

 **************************************************************************

                    xk=(   0.09990,   0.17303,   0.00000  )

     Band symmetry, C_1 (1)     double point group:

     e(  1 -  2) =    -61.37376  eV     2   -->   2 G_2            
     e(  3 -  3) =    -37.22504  eV     1   --> G_2            
     e(  4 -  4) =    -37.22306  eV     1   --> G_2            
     e(  5 -  5) =    -34.74316  eV     1   --> G_2            
     e(  6 -  6) =    -34.74189  eV     1   --> G_2            
     e(  7 -  7) =    -34.63411  eV     1   --> G_2            
     e(  8 -  8) =    -34.62996  eV     1   --> G_2            
     e(  9 -  9) =    -14.30158  eV     1   --> G_2            
     e( 10 - 10) =    -14.29794  eV     1   --> G_2            
     e( 11 - 11) =    -13.23032  eV     1   --> G_2            
     e( 12 - 12) =    -13.22999  eV     1   --> G_2            
     e( 13 - 13) =     -5.87344  eV     1   --> G_2            
     e( 14 - 14) =     -5.86835  eV     1   --> G_2            
     e( 15 - 15) =     -4.10210  eV     1   --> G_2            
     e( 16 - 16) =     -4.09094  eV     1   --> G_2            
     e( 17 - 17) =     -3.57471  eV     1   --> G_2            
     e( 18 - 18) =     -3.56908  eV     1   --> G_2            
     e( 19 - 19) =     -2.96100  eV     1   --> G_2            
     e( 20 - 20) =     -2.95625  eV     1   --> G_2            
     e( 21 - 21) =     -2.89135  eV     1   --> G_2            
     e( 22 - 22) =     -2.86365  eV     1   --> G_2            
     e( 23 - 23) =     -1.61472  eV     1   --> G_2            
     e( 24 - 24) =     -1.58552  eV     1   --> G_2            
     e( 25 - 25) =     -1.01506  eV     1   --> G_2            
     e( 26 - 26) =     -1.00385  eV     1   --> G_2            
     e( 27 - 27) =      1.55006  eV     1   --> G_2            
     e( 28 - 28) =      1.55090  eV     1   --> G_2            
     e( 29 - 29) =      1.72075  eV     1   --> G_2            
     e( 30 - 30) =      1.77385  eV     1   --> G_2            
     e( 31 - 31) =      1.90332  eV     1   --> G_2            
     e( 32 - 32) =      1.93019  eV     1   --> G_2            
     e( 33 - 33) =      2.75887  eV     1   --> G_2            
     e( 34 - 34) =      2.80904  eV     1   --> G_2            

 **************************************************************************

 **************************************************************************

                    xk=(   0.08325,   0.14419,   0.00000  )

     Band symmetry, C_1 (1)     double point group:

     e(  1 -  2) =    -61.37668  eV     2   -->   2 G_2            
     e(  3 -  3) =    -37.21652  eV     1   --> G_2            
     e(  4 -  4) =    -37.21535  eV     1   --> G_2            
     e(  5 -  5) =    -34.73735  eV     1   --> G_2            
     e(  6 -  6) =    -34.73647  eV     1   --> G_2            
     e(  7 -  7) =    -34.61683  eV     1   --> G_2            
     e(  8 -  8) =    -34.61424  eV     1   --> G_2            
     e(  9 -  9) =    -14.42628  eV     1   --> G_2            
     e( 10 - 10) =    -14.42416  eV     1   --> G_2            
     e( 11 - 11) =    -13.28214  eV     1   --> G_2            
     e( 12 - 12) =    -13.28195  eV     1   --> G_2            
     e( 13 - 13) =     -5.99116  eV     1   --> G_2            
     e( 14 - 14) =     -5.98842  eV     1   --> G_2            
     e( 15 - 15) =     -3.91103  eV     1   --> G_2            
     e( 16 - 16) =     -3.89906  eV     1   --> G_2            
     e( 17 - 17) =     -3.38094  eV     1   --> G_2            
     e( 18 - 18) =     -3.38020  eV     1   --> G_2            
     e( 19 - 19) =     -3.00810  eV     1   --> G_2            
     e( 20 - 20) =     -2.98167  eV     1   --> G_2            
     e( 21 - 21) =     -2.72455  eV     1   --> G_2            
     e( 22 - 22) =     -2.71964  eV     1   --> G_2            
     e( 23 - 23) =     -1.65489  eV     1   --> G_2            
     e( 24 - 24) =     -1.63024  eV     1   --> G_2            
     e( 25 - 25) =     -0.90140  eV     1   --> G_2            
     e( 26 - 26) =     -0.89618  eV     1   --> G_2            
     e( 27 - 27) =      1.68225  eV     1   --> G_2            
     e( 28 - 28) =      1.69636  eV     1   --> G_2            
     e( 29 - 29) =      1.75626  eV     1   --> G_2            
     e( 30 - 30) =      1.81059  eV     1   --> G_2            
     e( 31 - 31) =      2.00215  eV     1   --> G_2            
     e( 32 - 32) =      2.02961  eV     1   --> G_2            
     e( 33 - 33) =      2.57658  eV     1   --> G_2            
     e( 34 - 34) =      2.62451  eV     1   --> G_2            

 **************************************************************************

 **************************************************************************

                    xk=(   0.06660,   0.11535,   0.00000  )

     Band symmetry, C_1 (1)     double point group:

     e(  1 -  2) =    -61.37921  eV     2   -->   2 G_2            
     e(  3 -  3) =    -37.20929  eV     1   --> G_2            
     e(  4 -  4) =    -37.20868  eV     1   --> G_2            
     e(  5 -  5) =    -34.73310  eV     1   --> G_2            
     e(  6 -  6) =    -34.73261  eV     1   --> G_2            
     e(  7 -  7) =    -34.60093  eV     1   --> G_2            
     e(  8 -  8) =    -34.59954  eV     1   --> G_2            
     e(  9 -  9) =    -14.53181  eV     1   --> G_2            
     e( 10 - 10) =    -14.53071  eV     1   --> G_2            
     e( 11 - 12) =    -13.32594  eV     2   -->   2 G_2            
     e( 13 - 13) =     -6.10045  eV     1   --> G_2            
     e( 14 - 14) =     -6.09913  eV     1   --> G_2            
     e( 15 - 15) =     -3.72395  eV     1   --> G_2            
     e( 16 - 16) =     -3.71282  eV     1   --> G_2            
     e( 17 - 17) =     -3.18687  eV     1   --> G_2            
     e( 18 - 18) =     -3.17712  eV     1   --> G_2            
     e( 19 - 19) =     -3.10822  eV     1   --> G_2            
     e( 20 - 20) =     -3.07996  eV     1   --> G_2            
     e( 21 - 21) =     -2.52968  eV     1   --> G_2            
     e( 22 - 22) =     -2.52180  eV     1   --> G_2            
     e( 23 - 23) =     -1.72387  eV     1   --> G_2            
     e( 24 - 24) =     -1.70467  eV     1   --> G_2            
     e( 25 - 25) =     -0.81842  eV     1   --> G_2            
     e( 26 - 26) =     -0.81639  eV     1   --> G_2            
     e( 27 - 27) =      1.81706  eV     1   --> G_2            
     e( 28 - 28) =      1.82245  eV     1   --> G_2            
     e( 29 - 29) =      1.86414  eV     1   --> G_2            
     e( 30 - 30) =      1.88876  eV     1   --> G_2            
     e( 31 - 31) =      2.10452  eV     1   --> G_2            
     e( 32 - 32) =      2.13044  eV     1   --> G_2            
     e( 33 - 33) =      2.41210  eV     1   --> G_2            
     e( 34 - 34) =      2.45618  eV     1   --> G_2            

 **************************************************************************

 **************************************************************************

                    xk=(   0.04995,   0.08652,   0.00000  )

     Band symmetry, C_1 (1)     double point group:

     e(  1 -  2) =    -61.38126  eV     2   -->   2 G_2            
     e(  3 -  3) =    -37.20352  eV     1   --> G_2            
     e(  4 -  4) =    -37.20326  eV     1   --> G_2            
     e(  5 -  5) =    -34.73014  eV     1   --> G_2            
     e(  6 -  6) =    -34.72992  eV     1   --> G_2            
     e(  7 -  7) =    -34.58748  eV     1   --> G_2            
     e(  8 -  8) =    -34.58688  eV     1   --> G_2            
     e(  9 -  9) =    -14.61609  eV     1   --> G_2            
     e( 10 - 10) =    -14.61563  eV     1   --> G_2            
     e( 11 - 12) =    -13.36089  eV     2   -->   2 G_2            
     e( 13 - 13) =     -6.19274  eV     1   --> G_2            
     e( 14 - 14) =     -6.19220  eV     1   --> G_2            
     e( 15 - 15) =     -3.55757  eV     1   --> G_2            
     e( 16 - 16) =     -3.54846  eV     1   --> G_2            
     e( 17 - 17) =     -3.19139  eV     1   --> G_2            
     e( 18 - 18) =     -3.18321  eV     1   --> G_2            
     e( 19 - 19) =     -2.96627  eV     1   --> G_2            
     e( 20 - 20) =     -2.96258  eV     1   --> G_2            
     e( 21 - 21) =     -2.37673  eV     1   --> G_2            
     e( 22 - 22) =     -2.36832  eV     1   --> G_2            
     e( 23 - 23) =     -1.82158  eV     1   --> G_2            
     e( 24 - 24) =     -1.80814  eV     1   --> G_2            
     e( 25 - 25) =     -0.76371  eV     1   --> G_2            
     e( 26 - 26) =     -0.76308  eV     1   --> G_2            
     e( 27 - 27) =      1.90234  eV     1   --> G_2            
     e( 28 - 28) =      1.92470  eV     1   --> G_2            
     e( 29 - 29) =      2.03074  eV     1   --> G_2            
     e( 30 - 30) =      2.03090  eV     1   --> G_2            
     e( 31 - 31) =      2.19336  eV     1   --> G_2            
     e( 32 - 32) =      2.21692  eV     1   --> G_2            
     e( 33 - 33) =      2.27762  eV     1   --> G_2            
     e( 34 - 34) =      2.31763  eV     1   --> G_2            

 **************************************************************************

 **************************************************************************

                    xk=(   0.03330,   0.05768,   0.00000  )

     Band symmetry, C_1 (1)     double point group:

     e(  1 -  2) =    -61.38277  eV     2   -->   2 G_2            
     e(  3 -  4) =    -37.19934  eV     2   -->   2 G_2            
     e(  5 -  6) =    -34.72821  eV     2   -->   2 G_2            
     e(  7 -  7) =    -34.57731  eV     1   --> G_2            
     e(  8 -  8) =    -34.57713  eV     1   --> G_2            
     e(  9 -  9) =    -14.67750  eV     1   --> G_2            
     e( 10 - 10) =    -14.67736  eV     1   --> G_2            
     e( 11 - 12) =    -13.38633  eV     2   -->   2 G_2            
     e( 13 - 13) =     -6.26229  eV     1   --> G_2            
     e( 14 - 14) =     -6.26214  eV     1   --> G_2            
     e( 15 - 15) =     -3.42782  eV     1   --> G_2            
     e( 16 - 16) =     -3.42171  eV     1   --> G_2            
     e( 17 - 17) =     -3.24991  eV     1   --> G_2            
     e( 18 - 18) =     -3.24371  eV     1   --> G_2            
     e( 19 - 19) =     -2.75708  eV     1   --> G_2            
     e( 20 - 20) =     -2.75678  eV     1   --> G_2            
     e( 21 - 21) =     -2.26895  eV     1   --> G_2            
     e( 22 - 22) =     -2.26212  eV     1   --> G_2            
     e( 23 - 23) =     -1.94476  eV     1   --> G_2            
     e( 24 - 24) =     -1.93672  eV     1   --> G_2            
     e( 25 - 25) =     -0.73115  eV     1   --> G_2            
     e( 26 - 26) =     -0.73102  eV     1   --> G_2            
     e( 27 - 27) =      1.98539  eV     1   --> G_2            
     e( 28 - 28) =      2.00209  eV     1   --> G_2            
     e( 29 - 29) =      2.16040  eV     1   --> G_2            
     e( 30 - 30) =      2.16205  eV     1   --> G_2            
     e( 31 - 31) =      2.19558  eV     1   --> G_2            
     e( 32 - 32) =      2.21848  eV     1   --> G_2            
     e( 33 - 33) =      2.28070  eV     1   --> G_2            
     e( 34 - 34) =      2.28718  eV     1   --> G_2            

 **************************************************************************

 **************************************************************************

                    xk=(   0.01665,   0.02884,   0.00000  )

     Band symmetry, C_1 (1)     double point group:

     e(  1 -  2) =    -61.38370  eV     2   -->   2 G_2            
     e(  3 -  4) =    -37.19681  eV     2   -->   2 G_2            
     e(  5 -  6) =    -34.72713  eV     2   -->   2 G_2            
     e(  7 -  8) =    -34.57100  eV     2   -->   2 G_2            
     e(  9 - 10) =    -14.71483  eV     2   -->   2 G_2            
     e( 11 - 12) =    -13.40178  eV     2   -->   2 G_2            
     e( 13 - 14) =     -6.30543  eV     2   -->   2 G_2            
     e( 15 - 15) =     -3.35300  eV     1   --> G_2            
     e( 16 - 16) =     -3.35116  eV     1   --> G_2            
     e( 17 - 17) =     -3.27502  eV     1   --> G_2            
     e( 18 - 18) =     -3.27316  eV     1   --> G_2            
     e( 19 - 19) =     -2.56411  eV     1   --> G_2            
     e( 20 - 20) =     -2.56388  eV     1   --> G_2            
     e( 21 - 21) =     -2.21131  eV     1   --> G_2            
     e( 22 - 22) =     -2.20803  eV     1   --> G_2            
     e( 23 - 23) =     -2.07688  eV     1   --> G_2            
     e( 24 - 24) =     -2.07369  eV     1   --> G_2            
     e( 25 - 26) =     -0.71451  eV     2   -->   2 G_2            
     e( 27 - 27) =      2.03805  eV     1   --> G_2            
     e( 28 - 28) =      2.04286  eV     1   --> G_2            
     e( 29 - 29) =      2.12935  eV     1   --> G_2            
     e( 30 - 30) =      2.13342  eV     1   --> G_2            
     e( 31 - 31) =      2.29592  eV     1   --> G_2            
     e( 32 - 32) =      2.30180  eV     1   --> G_2            
     e( 33 - 33) =      2.32171  eV     1   --> G_2            
     e( 34 - 34) =      2.32712  eV     1   --> G_2            

 **************************************************************************

 **************************************************************************

                    xk=(   0.00000,   0.00000,   0.00000  )

     double point group C_3v (3m)  
     there are  6 classes and  3 irreducible representations
     the character table:

       E     -E    2C3   -2C3  3s_v  -3s_v
                                          
G_4    2.00 -2.00  1.00 -1.00  0.00  0.00
G_5    1.00 -1.00 -1.00  1.00  0.00  0.00
G_6    1.00 -1.00 -1.00  1.00  0.00  0.00

     imaginary part

       E     -E    2C3   -2C3  3s_v  -3s_v
                                          
G_4    0.00  0.00  0.00  0.00  0.00  0.00
G_5    0.00  0.00  0.00  0.00  1.00 -1.00
G_6    0.00  0.00  0.00  0.00 -1.00  1.00

     the symmetry operations in each class and the name of the first element:

     E             1
                                                                 
     -E           -1
                                                                 
     2C3           2    3
                                                                 
     -2C3         -2   -3
                                                                 
     3s_v          5    6   -4
                                                                 
     -3s_v         4   -5   -6
                                                                 

     Band symmetry, C_3v (3m)   double point group:

     e(  1 -  2) =    -61.38402  eV     2   --> G_4   L_6      
     e(  3 -  4) =    -37.19596  eV     2   --> G_4   L_6      
     e(  5 -  6) =    -34.72679  eV     2   --> G_4   L_6      
     e(  7 -  8) =    -34.56887  eV     2   --> G_5   L_4      
     e(  7 -  8) =    -34.56887  eV     2   --> G_6   L_5      
     e(  9 - 10) =    -14.72737  eV     2   --> G_4   L_6      
     e( 11 - 12) =    -13.40697  eV     2   --> G_4   L_6      
     e( 13 - 14) =     -6.32004  eV     2   --> G_4   L_6      
     e( 15 - 16) =     -3.33803  eV     2   --> G_5   L_4      
     e( 15 - 16) =     -3.33803  eV     2   --> G_6   L_5      
     e( 17 - 18) =     -3.27218  eV     2   --> G_4   L_6      
     e( 19 - 20) =     -2.45410  eV     2   --> G_4   L_6      
     e( 21 - 22) =     -2.22171  eV     2   --> G_4   L_6      
     e( 23 - 24) =     -2.13498  eV     2   --> G_5   L_4      
     e( 23 - 24) =     -2.13498  eV     2   --> G_6   L_5      
     e( 25 - 26) =     -0.70947  eV     2   --> G_4   L_6      
     e( 27 - 28) =      2.04596  eV     2   --> G_4   L_6      
     e( 29 - 30) =      2.12747  eV     2   --> G_5   L_4      
     e( 29 - 30) =      2.12747  eV     2   --> G_6   L_5      
     e( 31 - 32) =      2.33721  eV     2   --> G_4   L_6      
     e( 33 - 34) =      2.34028  eV     2   --> G_5   L_4      
     e( 33 - 34) =      2.34028  eV     2   --> G_6   L_5      

 **************************************************************************

     BANDS        :   5m56.75s CPU   6m25.88s WALL


   This run was terminated on:  12:33:39  19Jun2025            

=------------------------------------------------------------------------------=
   JOB DONE.
=------------------------------------------------------------------------------=
