
     Program PWSCF v.7.2 starts on 19Jun2025 at 12:25:33 

     This program is part of the open-source Quantum ESPRESSO suite
     for quantum simulation of materials; please cite
         "P. Giannozzi et al., J. Phys.:Condens. Matter 21 395502 (2009);
         "P. Giannozzi et al., J. Phys.:Condens. Matter 29 465901 (2017);
         "P. Giannozzi et al., J. Chem. Phys. 152 154105 (2020);
          URL http://www.quantum-espresso.org", 
     in publications or presentations arising from this work. More details at
     http://www.quantum-espresso.org/quote

     Parallel version (MPI & OpenMP), running on      20 processor cores
     Number of MPI processes:                20
     Threads/MPI process:                     1

     MPI processes distributed on     1 nodes
     102051 MiB available memory on the printing compute node when the environment starts

     Reading input from mos2.bands.in

     Current dimensions of program PWSCF are:
     Max number of different atomic species (ntypx) = 10
     Max number of k-points (npk) =  40000
     Max angular momentum in pseudopotentials (lmaxx) =  4

     Atomic positions and unit cell read from directory:
     ./tmp/mos2.save/
     Atomic positions from file used, from input discarded

     Message from routine setup:
     using ibrav=0 with symmetry is DISCOURAGED, use correct ibrav instead

     R & G space division:  proc/nbgrp/npool/nimage =      20
     Subspace diagonalization in iterative solution of the eigenvalue problem:
     a serial algorithm will be used


     Parallelization info
     --------------------
     sticks:   dense  smooth     PW     G-vecs:    dense   smooth      PW
     Min         150      59     17                37712     9523    1427
     Max         151      60     18                37728     9544    1439
     Sum        3001    1189    349               754435   190631   28675

     Using Slab Decomposition



     bravais-lattice index     =            0
     lattice parameter (alat)  =       6.0137  a.u.
     unit-cell volume          =    1074.4427 (a.u.)^3
     number of atoms/cell      =            3
     number of atomic types    =            2
     number of electrons       =        26.00
     number of Kohn-Sham states=           34
     kinetic-energy cutoff     =     120.0000  Ry
     charge density cutoff     =    1200.0000  Ry
     Exchange-correlation= LDA
                           (   1   1   0   0   0   0   0)
     Non magnetic calculation with spin-orbit


     celldm(1)=   6.013746  celldm(2)=   0.000000  celldm(3)=   0.000000
     celldm(4)=   0.000000  celldm(5)=   0.000000  celldm(6)=   0.000000

     crystal axes: (cart. coord. in units of alat)
               a(1) = (   1.000000  -0.000000   0.000000 )  
               a(2) = (  -0.500000   0.866025   0.000000 )  
               a(3) = (   0.000000   0.000000   5.704496 )  

     reciprocal axes: (cart. coord. in units 2 pi/alat)
               b(1) = (  1.000000  0.577350 -0.000000 )  
               b(2) = (  0.000000  1.154701 -0.000000 )  
               b(3) = ( -0.000000 -0.000000  0.175300 )  


     PseudoPot. # 1 for Mo read from file:
     /opt/project/dorye_projects/brazil_kpm/lda_pp/Mo.rel.UPF
     MD5 check sum: a75c5d58aa0038eca1683e5b7c874a9a
     Pseudo is Ultrasoft + core correction, Zval = 14.0
     Generated using "atomic" code by A. Dal Corso  v.5.0.2 svn rev. 9415
     Using radial grid of 1229 points, 10 beta functions with: 
                l(1) =   0
                l(2) =   0
                l(3) =   1
                l(4) =   1
                l(5) =   1
                l(6) =   1
                l(7) =   2
                l(8) =   2
                l(9) =   2
               l(10) =   2
     Q(r) pseudized with 0 coefficients 


     PseudoPot. # 2 for S  read from file:
     /opt/project/dorye_projects/brazil_kpm/lda_pp/S.rel.UPF
     MD5 check sum: 9744309cda5a9b17497ad7b7df5b4d76
     Pseudo is Ultrasoft + core correction, Zval =  6.0
     Generated using "atomic" code by A. Dal Corso  v.5.0.2 svn rev. 9415
     Using radial grid of 1151 points,  6 beta functions with: 
                l(1) =   0
                l(2) =   0
                l(3) =   1
                l(4) =   1
                l(5) =   1
                l(6) =   1
     Q(r) pseudized with 0 coefficients 


     atomic species   valence    mass     pseudopotential
        Mo            14.00    95.95000     Mo( 1.00)
        S              6.00    32.06000     S ( 1.00)

      6 Sym. Ops. (no inversion) found


                                    s                        frac. trans.

      isym =  1     identity                                     

 cryst.   s( 1) = (     1          0          0      )
                  (     0          1          0      )
                  (     0          0          1      )

 cart.    s( 1) = (  1.0000000  0.0000000  0.0000000 )
                  (  0.0000000  1.0000000  0.0000000 )
                  (  0.0000000  0.0000000  1.0000000 )


      isym =  2     120 deg rotation - cryst. axis [0,0,1]       

 cryst.   s( 2) = (     0          1          0      )
                  (    -1         -1          0      )
                  (     0          0          1      )

 cart.    s( 2) = ( -0.5000000 -0.8660254  0.0000000 )
                  (  0.8660254 -0.5000000  0.0000000 )
                  (  0.0000000  0.0000000  1.0000000 )


      isym =  3     120 deg rotation - cryst. axis [0,0,-1]      

 cryst.   s( 3) = (    -1         -1          0      )
                  (     1          0          0      )
                  (     0          0          1      )

 cart.    s( 3) = ( -0.5000000  0.8660254  0.0000000 )
                  ( -0.8660254 -0.5000000  0.0000000 )
                  (  0.0000000  0.0000000  1.0000000 )


      isym =  4     inv. 180 deg rotation - cart. axis [1,0,0]   

 cryst.   s( 4) = (    -1          0          0      )
                  (     1          1          0      )
                  (     0          0          1      )

 cart.    s( 4) = ( -1.0000000 -0.0000000  0.0000000 )
                  (  0.0000000  1.0000000  0.0000000 )
                  (  0.0000000  0.0000000  1.0000000 )


      isym =  5     inv. 180 deg rotation - cryst. axis [0,1,0]  

 cryst.   s( 5) = (     1          1          0      )
                  (     0         -1          0      )
                  (     0          0          1      )

 cart.    s( 5) = (  0.5000000  0.8660254  0.0000000 )
                  (  0.8660254 -0.5000000  0.0000000 )
                  (  0.0000000  0.0000000  1.0000000 )


      isym =  6     inv. 180 deg rotation - cryst. axis [1,1,0]  

 cryst.   s( 6) = (     0         -1          0      )
                  (    -1          0          0      )
                  (     0          0          1      )

 cart.    s( 6) = (  0.5000000 -0.8660254  0.0000000 )
                  ( -0.8660254 -0.5000000  0.0000000 )
                  (  0.0000000  0.0000000  1.0000000 )


   Cartesian axes

     site n.     atom                  positions (alat units)
         1           Mo  tau(   1) = (  -0.0000000   0.5773503   0.4954659  )
         2           S   tau(   2) = (   0.5000000   0.2886751   0.0044724  )
         3           S   tau(   3) = (   0.5000000   0.2886751   0.9864392  )

   Crystallographic axes

     site n.     atom                  positions (cryst. coord.)
         1           Mo  tau(   1) = (  0.3333333  0.6666667  0.0868553  )
         2           S   tau(   2) = (  0.6666667  0.3333333  0.0007840  )
         3           S   tau(   3) = (  0.6666667  0.3333333  0.1729231  )

     number of k points=    61  Marzari-Vanderbilt smearing, width (Ry)=  0.0030
                       cart. coord. in units 2pi/alat
        k(    1) = (   0.0000000   0.0000000   0.0000000), wk =   0.0163934
        k(    2) = (   0.0250000   0.0144338   0.0000000), wk =   0.0163934
        k(    3) = (   0.0500000   0.0288675   0.0000000), wk =   0.0163934
        k(    4) = (   0.0750000   0.0433013   0.0000000), wk =   0.0163934
        k(    5) = (   0.1000000   0.0577350   0.0000000), wk =   0.0163934
        k(    6) = (   0.1250000   0.0721688   0.0000000), wk =   0.0163934
        k(    7) = (   0.1500000   0.0866025   0.0000000), wk =   0.0163934
        k(    8) = (   0.1750000   0.1010363   0.0000000), wk =   0.0163934
        k(    9) = (   0.2000000   0.1154701   0.0000000), wk =   0.0163934
        k(   10) = (   0.2250000   0.1299038   0.0000000), wk =   0.0163934
        k(   11) = (   0.2500000   0.1443376   0.0000000), wk =   0.0163934
        k(   12) = (   0.2750000   0.1587713   0.0000000), wk =   0.0163934
        k(   13) = (   0.3000000   0.1732051   0.0000000), wk =   0.0163934
        k(   14) = (   0.3250000   0.1876388   0.0000000), wk =   0.0163934
        k(   15) = (   0.3500000   0.2020726   0.0000000), wk =   0.0163934
        k(   16) = (   0.3750000   0.2165064   0.0000000), wk =   0.0163934
        k(   17) = (   0.4000000   0.2309401   0.0000000), wk =   0.0163934
        k(   18) = (   0.4250000   0.2453739   0.0000000), wk =   0.0163934
        k(   19) = (   0.4500000   0.2598076   0.0000000), wk =   0.0163934
        k(   20) = (   0.4750000   0.2742414   0.0000000), wk =   0.0163934
        k(   21) = (   0.5000000   0.2886751   0.0000000), wk =   0.0163934
        k(   22) = (   0.4916500   0.3030800   0.0000000), wk =   0.0163934
        k(   23) = (   0.4833000   0.3174849   0.0000000), wk =   0.0163934
        k(   24) = (   0.4749500   0.3318898   0.0000000), wk =   0.0163934
        k(   25) = (   0.4666000   0.3462947   0.0000000), wk =   0.0163934
        k(   26) = (   0.4582500   0.3606996   0.0000000), wk =   0.0163934
        k(   27) = (   0.4499000   0.3751045   0.0000000), wk =   0.0163934
        k(   28) = (   0.4415500   0.3895094   0.0000000), wk =   0.0163934
        k(   29) = (   0.4332000   0.4039142   0.0000000), wk =   0.0163934
        k(   30) = (   0.4248500   0.4183191   0.0000000), wk =   0.0163934
        k(   31) = (   0.4165000   0.4327240   0.0000000), wk =   0.0163934
        k(   32) = (   0.4081500   0.4471289   0.0000000), wk =   0.0163934
        k(   33) = (   0.3998000   0.4615338   0.0000000), wk =   0.0163934
        k(   34) = (   0.3914500   0.4759387   0.0000000), wk =   0.0163934
        k(   35) = (   0.3831000   0.4903436   0.0000000), wk =   0.0163934
        k(   36) = (   0.3747500   0.5047485   0.0000000), wk =   0.0163934
        k(   37) = (   0.3664000   0.5191534   0.0000000), wk =   0.0163934
        k(   38) = (   0.3580500   0.5335583   0.0000000), wk =   0.0163934
        k(   39) = (   0.3497000   0.5479631   0.0000000), wk =   0.0163934
        k(   40) = (   0.3413500   0.5623680   0.0000000), wk =   0.0163934
        k(   41) = (   0.3330000   0.5767729   0.0000000), wk =   0.0163934
        k(   42) = (   0.3163500   0.5479343   0.0000000), wk =   0.0163934
        k(   43) = (   0.2997000   0.5190956   0.0000000), wk =   0.0163934
        k(   44) = (   0.2830500   0.4902570   0.0000000), wk =   0.0163934
        k(   45) = (   0.2664000   0.4614183   0.0000000), wk =   0.0163934
        k(   46) = (   0.2497500   0.4325797   0.0000000), wk =   0.0163934
        k(   47) = (   0.2331000   0.4037410   0.0000000), wk =   0.0163934
        k(   48) = (   0.2164500   0.3749024   0.0000000), wk =   0.0163934
        k(   49) = (   0.1998000   0.3460638   0.0000000), wk =   0.0163934
        k(   50) = (   0.1831500   0.3172251   0.0000000), wk =   0.0163934
        k(   51) = (   0.1665000   0.2883865   0.0000000), wk =   0.0163934
        k(   52) = (   0.1498500   0.2595478   0.0000000), wk =   0.0163934
        k(   53) = (   0.1332000   0.2307092   0.0000000), wk =   0.0163934
        k(   54) = (   0.1165500   0.2018705   0.0000000), wk =   0.0163934
        k(   55) = (   0.0999000   0.1730319   0.0000000), wk =   0.0163934
        k(   56) = (   0.0832500   0.1441932   0.0000000), wk =   0.0163934
        k(   57) = (   0.0666000   0.1153546   0.0000000), wk =   0.0163934
        k(   58) = (   0.0499500   0.0865159   0.0000000), wk =   0.0163934
        k(   59) = (   0.0333000   0.0576773   0.0000000), wk =   0.0163934
        k(   60) = (   0.0166500   0.0288386   0.0000000), wk =   0.0163934
        k(   61) = (   0.0000000   0.0000000   0.0000000), wk =   0.0163934

                       cryst. coord.
        k(    1) = (   0.0000000   0.0000000   0.0000000), wk =   0.0163934
        k(    2) = (   0.0250000   0.0000000   0.0000000), wk =   0.0163934
        k(    3) = (   0.0500000   0.0000000   0.0000000), wk =   0.0163934
        k(    4) = (   0.0750000   0.0000000   0.0000000), wk =   0.0163934
        k(    5) = (   0.1000000   0.0000000   0.0000000), wk =   0.0163934
        k(    6) = (   0.1250000   0.0000000   0.0000000), wk =   0.0163934
        k(    7) = (   0.1500000   0.0000000   0.0000000), wk =   0.0163934
        k(    8) = (   0.1750000   0.0000000   0.0000000), wk =   0.0163934
        k(    9) = (   0.2000000   0.0000000   0.0000000), wk =   0.0163934
        k(   10) = (   0.2250000   0.0000000   0.0000000), wk =   0.0163934
        k(   11) = (   0.2500000   0.0000000   0.0000000), wk =   0.0163934
        k(   12) = (   0.2750000   0.0000000   0.0000000), wk =   0.0163934
        k(   13) = (   0.3000000   0.0000000   0.0000000), wk =   0.0163934
        k(   14) = (   0.3250000   0.0000000   0.0000000), wk =   0.0163934
        k(   15) = (   0.3500000   0.0000000   0.0000000), wk =   0.0163934
        k(   16) = (   0.3750000   0.0000000   0.0000000), wk =   0.0163934
        k(   17) = (   0.4000000   0.0000000   0.0000000), wk =   0.0163934
        k(   18) = (   0.4250000  -0.0000000   0.0000000), wk =   0.0163934
        k(   19) = (   0.4500000   0.0000000   0.0000000), wk =   0.0163934
        k(   20) = (   0.4750000   0.0000000   0.0000000), wk =   0.0163934
        k(   21) = (   0.5000000   0.0000000   0.0000000), wk =   0.0163934
        k(   22) = (   0.4916500   0.0166500   0.0000000), wk =   0.0163934
        k(   23) = (   0.4833000   0.0333000   0.0000000), wk =   0.0163934
        k(   24) = (   0.4749500   0.0499500   0.0000000), wk =   0.0163934
        k(   25) = (   0.4666000   0.0666000   0.0000000), wk =   0.0163934
        k(   26) = (   0.4582500   0.0832500   0.0000000), wk =   0.0163934
        k(   27) = (   0.4499000   0.0999000   0.0000000), wk =   0.0163934
        k(   28) = (   0.4415500   0.1165500   0.0000000), wk =   0.0163934
        k(   29) = (   0.4332000   0.1332000   0.0000000), wk =   0.0163934
        k(   30) = (   0.4248500   0.1498500   0.0000000), wk =   0.0163934
        k(   31) = (   0.4165000   0.1665000   0.0000000), wk =   0.0163934
        k(   32) = (   0.4081500   0.1831500   0.0000000), wk =   0.0163934
        k(   33) = (   0.3998000   0.1998000   0.0000000), wk =   0.0163934
        k(   34) = (   0.3914500   0.2164500   0.0000000), wk =   0.0163934
        k(   35) = (   0.3831000   0.2331000   0.0000000), wk =   0.0163934
        k(   36) = (   0.3747500   0.2497500   0.0000000), wk =   0.0163934
        k(   37) = (   0.3664000   0.2664000   0.0000000), wk =   0.0163934
        k(   38) = (   0.3580500   0.2830500   0.0000000), wk =   0.0163934
        k(   39) = (   0.3497000   0.2997000   0.0000000), wk =   0.0163934
        k(   40) = (   0.3413500   0.3163500   0.0000000), wk =   0.0163934
        k(   41) = (   0.3330000   0.3330000   0.0000000), wk =   0.0163934
        k(   42) = (   0.3163500   0.3163500   0.0000000), wk =   0.0163934
        k(   43) = (   0.2997000   0.2997000   0.0000000), wk =   0.0163934
        k(   44) = (   0.2830500   0.2830500   0.0000000), wk =   0.0163934
        k(   45) = (   0.2664000   0.2664000   0.0000000), wk =   0.0163934
        k(   46) = (   0.2497500   0.2497500   0.0000000), wk =   0.0163934
        k(   47) = (   0.2331000   0.2331000   0.0000000), wk =   0.0163934
        k(   48) = (   0.2164500   0.2164500   0.0000000), wk =   0.0163934
        k(   49) = (   0.1998000   0.1998000   0.0000000), wk =   0.0163934
        k(   50) = (   0.1831500   0.1831500   0.0000000), wk =   0.0163934
        k(   51) = (   0.1665000   0.1665000   0.0000000), wk =   0.0163934
        k(   52) = (   0.1498500   0.1498500   0.0000000), wk =   0.0163934
        k(   53) = (   0.1332000   0.1332000   0.0000000), wk =   0.0163934
        k(   54) = (   0.1165500   0.1165500   0.0000000), wk =   0.0163934
        k(   55) = (   0.0999000   0.0999000   0.0000000), wk =   0.0163934
        k(   56) = (   0.0832500   0.0832500   0.0000000), wk =   0.0163934
        k(   57) = (   0.0666000   0.0666000   0.0000000), wk =   0.0163934
        k(   58) = (   0.0499500   0.0499500   0.0000000), wk =   0.0163934
        k(   59) = (   0.0333000   0.0333000   0.0000000), wk =   0.0163934
        k(   60) = (   0.0166500   0.0166500   0.0000000), wk =   0.0163934
        k(   61) = (   0.0000000   0.0000000   0.0000000), wk =   0.0163934

     Dense  grid:   754435 G-vectors     FFT dimensions: (  72,  72, 384)

     Smooth grid:   190631 G-vectors     FFT dimensions: (  45,  45, 240)

     Dynamical RAM for                 wfc:       1.24 MB

     Dynamical RAM for     wfc (w. buffer):       1.24 MB

     Dynamical RAM for           str. fact:       1.15 MB

     Dynamical RAM for           local pot:       0.00 MB

     Dynamical RAM for          nlocal pot:       1.13 MB

     Dynamical RAM for                qrad:      14.55 MB

     Dynamical RAM for          rho,v,vnew:      16.40 MB

     Dynamical RAM for           G-vectors:       2.23 MB

     Dynamical RAM for          h,s,v(r/c):       0.21 MB

     Dynamical RAM for          <psi|beta>:       0.06 MB

     Dynamical RAM for                 psi:       2.47 MB

     Dynamical RAM for                hpsi:       2.47 MB

     Dynamical RAM for                spsi:       2.47 MB

     Dynamical RAM for      wfcinit/wfcrot:       2.33 MB

     Dynamical RAM for           addusdens:     352.32 MB

     Estimated static dynamical RAM per process >      44.76 MB

     Estimated max dynamical RAM per process >     397.07 MB

     Estimated total dynamical RAM >       7.76 GB

     The potential is recalculated from file :
     ./tmp/mos2.save/charge-density


     negative rho (up, down):  5.548E-05 0.000E+00
     Starting wfcs are   42 randomized atomic wfcs

     Band Structure Calculation
     Davidson diagonalization with overlap

     Computing kpt #:     1  of    61
     total cpu time spent up to now is        4.5 secs

     Computing kpt #:     2  of    61
     total cpu time spent up to now is        6.0 secs

     Computing kpt #:     3  of    61
     total cpu time spent up to now is        7.5 secs

     Computing kpt #:     4  of    61
     total cpu time spent up to now is        9.0 secs

     Computing kpt #:     5  of    61
     total cpu time spent up to now is       10.5 secs

     Computing kpt #:     6  of    61
     total cpu time spent up to now is       12.0 secs

     Computing kpt #:     7  of    61
     total cpu time spent up to now is       13.5 secs

     Computing kpt #:     8  of    61
     total cpu time spent up to now is       15.0 secs

     Computing kpt #:     9  of    61
     total cpu time spent up to now is       16.6 secs

     Computing kpt #:    10  of    61
     total cpu time spent up to now is       18.1 secs

     Computing kpt #:    11  of    61
     total cpu time spent up to now is       19.6 secs

     Computing kpt #:    12  of    61
     total cpu time spent up to now is       21.1 secs

     Computing kpt #:    13  of    61
     total cpu time spent up to now is       22.6 secs

     Computing kpt #:    14  of    61
     total cpu time spent up to now is       24.2 secs

     Computing kpt #:    15  of    61
     total cpu time spent up to now is       25.7 secs

     Computing kpt #:    16  of    61
     total cpu time spent up to now is       27.2 secs

     Computing kpt #:    17  of    61
     total cpu time spent up to now is       28.8 secs

     Computing kpt #:    18  of    61
     total cpu time spent up to now is       30.4 secs

     Computing kpt #:    19  of    61
     total cpu time spent up to now is       31.9 secs

     Computing kpt #:    20  of    61
     total cpu time spent up to now is       33.5 secs

     Computing kpt #:    21  of    61
     total cpu time spent up to now is       35.1 secs

     Computing kpt #:    22  of    61
     total cpu time spent up to now is       36.6 secs

     Computing kpt #:    23  of    61
     total cpu time spent up to now is       38.1 secs

     Computing kpt #:    24  of    61
     total cpu time spent up to now is       39.7 secs

     Computing kpt #:    25  of    61
     total cpu time spent up to now is       41.2 secs

     Computing kpt #:    26  of    61
     total cpu time spent up to now is       42.8 secs

     Computing kpt #:    27  of    61
     total cpu time spent up to now is       44.3 secs

     Computing kpt #:    28  of    61
     total cpu time spent up to now is       45.9 secs

     Computing kpt #:    29  of    61
     total cpu time spent up to now is       47.5 secs

     Computing kpt #:    30  of    61
     total cpu time spent up to now is       49.0 secs

     Computing kpt #:    31  of    61
     total cpu time spent up to now is       50.5 secs

     Computing kpt #:    32  of    61
     total cpu time spent up to now is       52.1 secs

     Computing kpt #:    33  of    61
     total cpu time spent up to now is       53.6 secs

     Computing kpt #:    34  of    61
     total cpu time spent up to now is       55.2 secs

     Computing kpt #:    35  of    61
     total cpu time spent up to now is       56.7 secs

     Computing kpt #:    36  of    61
     total cpu time spent up to now is       58.3 secs

     Computing kpt #:    37  of    61
     total cpu time spent up to now is       59.8 secs

     Computing kpt #:    38  of    61
     total cpu time spent up to now is       61.3 secs

     Computing kpt #:    39  of    61
     total cpu time spent up to now is       62.8 secs

     Computing kpt #:    40  of    61
     total cpu time spent up to now is       64.3 secs

     Computing kpt #:    41  of    61
     total cpu time spent up to now is       65.8 secs

     Computing kpt #:    42  of    61
     total cpu time spent up to now is       67.3 secs

     Computing kpt #:    43  of    61
     total cpu time spent up to now is       68.8 secs

     Computing kpt #:    44  of    61
     total cpu time spent up to now is       70.4 secs

     Computing kpt #:    45  of    61
     total cpu time spent up to now is       71.9 secs

     Computing kpt #:    46  of    61
     total cpu time spent up to now is       73.5 secs

     Computing kpt #:    47  of    61
     total cpu time spent up to now is       75.0 secs

     Computing kpt #:    48  of    61
     total cpu time spent up to now is       76.5 secs

     Computing kpt #:    49  of    61
     total cpu time spent up to now is       78.1 secs

     Computing kpt #:    50  of    61
     total cpu time spent up to now is       79.6 secs

     Computing kpt #:    51  of    61
     total cpu time spent up to now is       81.1 secs

     Computing kpt #:    52  of    61
     total cpu time spent up to now is       82.6 secs

     Computing kpt #:    53  of    61
     total cpu time spent up to now is       84.1 secs

     Computing kpt #:    54  of    61
     total cpu time spent up to now is       85.7 secs

     Computing kpt #:    55  of    61
     total cpu time spent up to now is       87.2 secs

     Computing kpt #:    56  of    61
     total cpu time spent up to now is       88.7 secs

     Computing kpt #:    57  of    61
     total cpu time spent up to now is       90.2 secs

     Computing kpt #:    58  of    61
     total cpu time spent up to now is       91.8 secs

     Computing kpt #:    59  of    61
     total cpu time spent up to now is       93.3 secs

     Computing kpt #:    60  of    61
     total cpu time spent up to now is       94.8 secs

     Computing kpt #:    61  of    61
     total cpu time spent up to now is       96.3 secs

     ethr =  3.85E-10,  avg # of iterations = 27.0

     total cpu time spent up to now is       96.3 secs

     End of band structure calculation

          k = 0.0000 0.0000 0.0000 ( 23951 PWs)   bands (ev):

   -61.3840 -61.3840 -37.1960 -37.1960 -34.7268 -34.7268 -34.5689 -34.5689
   -14.7274 -14.7274 -13.4070 -13.4070  -6.3200  -6.3200  -3.3380  -3.3380
    -3.2722  -3.2722  -2.4541  -2.4541  -2.2217  -2.2217  -2.1350  -2.1350
    -0.7095  -0.7095   2.0460   2.0460   2.1275   2.1275   2.3372   2.3372
     2.3403   2.3403

          k = 0.0250 0.0144 0.0000 ( 23929 PWs)   bands (ev):

   -61.3838 -61.3838 -37.1966 -37.1966 -34.7270 -34.7270 -34.5705 -34.5705
   -14.7179 -14.7179 -13.4031 -13.4031  -6.3090  -6.3090  -3.3476  -3.3476
    -3.2747  -3.2747  -2.5415  -2.5414  -2.2073  -2.2073  -2.0907  -2.0907
    -0.7132  -0.7132   2.0428   2.0428   2.1294   2.1294   2.3082   2.3082
     2.3283   2.3283

          k = 0.0500 0.0289 0.0000 ( 23919 PWs)   bands (ev):

   -61.3831 -61.3831 -37.1985 -37.1985 -34.7278 -34.7278 -34.5752 -34.5752
   -14.6898 -14.6898 -13.3914 -13.3914  -6.2764  -6.2764  -3.3992  -3.3992
    -3.2577  -3.2577  -2.7037  -2.7037  -2.2431  -2.2431  -1.9787  -1.9787
    -0.7254  -0.7254   2.0113   2.0114   2.1559   2.1559   2.2281   2.2281
     2.2973   2.2974

          k = 0.0750 0.0433 0.0000 ( 23901 PWs)   bands (ev):

   -61.3819 -61.3819 -37.2016 -37.2016 -34.7292 -34.7292 -34.5828 -34.5828
   -14.6433 -14.6433 -13.3722 -13.3722  -6.2234  -6.2234  -3.4968  -3.4968
    -3.2136  -3.2136  -2.8845  -2.8845  -2.3139  -2.3139  -1.8701  -1.8701
    -0.7483  -0.7483   1.9520   1.9521   2.0912   2.0912   2.2209   2.2209
     2.2664   2.2664

          k = 0.1000 0.0577 0.0000 ( 23902 PWs)   bands (ev):

   -61.3804 -61.3804 -37.2058 -37.2058 -34.7312 -34.7312 -34.5929 -34.5929
   -14.5791 -14.5791 -13.3457 -13.3457  -6.1520  -6.1520  -3.6277  -3.6277
    -3.1529  -3.1528  -3.0691  -3.0691  -2.4083  -2.4083  -1.7872  -1.7871
    -0.7859  -0.7859   1.8843   1.8845   1.9553   1.9554   2.1713   2.1713
     2.3462   2.3462

          k = 0.1250 0.0722 0.0000 ( 23928 PWs)   bands (ev):

   -61.3784 -61.3784 -37.2112 -37.2112 -34.7342 -34.7342 -34.6050 -34.6050
   -14.4981 -14.4981 -13.3122 -13.3122  -6.0655  -6.0655  -3.7816  -3.7816
    -3.2719  -3.2719  -3.0605  -3.0605  -2.5199  -2.5199  -1.7388  -1.7388
    -0.8427  -0.8427   1.7842   1.7844   1.8666   1.8668   2.0943   2.0943
     2.4617   2.4617

          k = 0.1500 0.0866 0.0000 ( 23920 PWs)   bands (ev):

   -61.3761 -61.3761 -37.2175 -37.2175 -34.7382 -34.7382 -34.6184 -34.6184
   -14.4016 -14.4016 -13.2724 -13.2724  -5.9692  -5.9692  -3.9484  -3.9484
    -3.4671  -3.4671  -2.9632  -2.9632  -2.6428  -2.6428  -1.7288  -1.7288
    -0.9225  -0.9225   1.6594   1.6595   1.8493   1.8494   2.0098   2.0098
     2.5892   2.5892

          k = 0.1750 0.1010 0.0000 ( 23910 PWs)   bands (ev):

   -61.3736 -61.3736 -37.2247 -37.2247 -34.7438 -34.7438 -34.6322 -34.6322
   -14.2909 -14.2909 -13.2267 -13.2267  -5.8704  -5.8704  -4.1172  -4.1172
    -3.6650  -3.6650  -2.8552  -2.8551  -2.7689  -2.7688  -1.7560  -1.7559
    -1.0264  -1.0263   1.5570   1.5571   1.8711   1.8712   1.9276   1.9276
     2.7213   2.7213

          k = 0.2000 0.1155 0.0000 ( 23896 PWs)   bands (ev):

   -61.3708 -61.3708 -37.2325 -37.2325 -34.7513 -34.7513 -34.6455 -34.6455
   -14.1678 -14.1678 -13.1761 -13.1761  -5.7804  -5.7804  -4.2758  -4.2758
    -3.8639  -3.8639  -2.9094  -2.9093  -2.7244  -2.7244  -1.8140  -1.8140
    -1.1507  -1.1507   1.4880   1.4881   1.8289   1.8289   1.9513   1.9514
     2.8523   2.8523

          k = 0.2250 0.1299 0.0000 ( 23882 PWs)   bands (ev):

   -61.3679 -61.3679 -37.2409 -37.2409 -34.7610 -34.7610 -34.6573 -34.6573
   -14.0344 -14.0344 -13.1213 -13.1213  -5.7145  -5.7145  -4.4100  -4.4100
    -4.0625  -4.0625  -3.0394  -3.0394  -2.5956  -2.5956  -1.8938  -1.8938
    -1.2868  -1.2868   1.4544   1.4544   1.7501   1.7501   2.0517   2.0517
     2.9779   2.9779

          k = 0.2500 0.1443 0.0000 ( 23890 PWs)   bands (ev):

   -61.3648 -61.3648 -37.2497 -37.2497 -34.7731 -34.7731 -34.6670 -34.6670
   -13.8930 -13.8930 -13.0636 -13.0636  -5.6903  -5.6903  -4.5060  -4.5060
    -4.2591  -4.2591  -3.1664  -3.1663  -2.4622  -2.4622  -1.9853  -1.9853
    -1.4213  -1.4213   1.4528   1.4528   1.6793   1.6793   2.1793   2.1793
     3.0946   3.0946

          k = 0.2750 0.1588 0.0000 ( 23860 PWs)   bands (ev):

   -61.3618 -61.3618 -37.2585 -37.2585 -34.7872 -34.7872 -34.6745 -34.6745
   -13.7464 -13.7464 -13.0041 -13.0041  -5.7188  -5.7188  -4.5597  -4.5597
    -4.4501  -4.4501  -3.2869  -3.2869  -2.3304  -2.3304  -2.0785  -2.0785
    -1.5386  -1.5386   1.4766   1.4767   1.6221   1.6221   2.3233   2.3233
     3.2002   3.2002

          k = 0.3000 0.1732 0.0000 ( 23902 PWs)   bands (ev):

   -61.3589 -61.3589 -37.2673 -37.2673 -34.8023 -34.8023 -34.6801 -34.6801
   -13.5979 -13.5979 -12.9443 -12.9443  -5.7951  -5.7951  -4.6460  -4.6460
    -4.5688  -4.5688  -3.3991  -3.3991  -2.2247  -2.2247  -2.1465  -2.1464
    -1.6239  -1.6239   1.5105   1.5105   1.5901   1.5901   2.4740   2.4740
     3.2934   3.2934

          k = 0.3250 0.1876 0.0000 ( 23886 PWs)   bands (ev):

   -61.3561 -61.3561 -37.2757 -37.2757 -34.8178 -34.8178 -34.6841 -34.6841
   -13.4509 -13.4509 -12.8857 -12.8857  -5.9026  -5.9026  -4.8186  -4.8186
    -4.5794  -4.5794  -3.5011  -3.5011  -2.2699  -2.2699  -2.0639  -2.0638
    -1.6660  -1.6660   1.5146   1.5147   1.6183   1.6183   2.6227   2.6227
     3.3737   3.3737

          k = 0.3500 0.2021 0.0000 ( 23882 PWs)   bands (ev):

   -61.3535 -61.3535 -37.2836 -37.2836 -34.8326 -34.8326 -34.6870 -34.6870
   -13.3096 -13.3096 -12.8299 -12.8299  -6.0238  -6.0238  -4.9811  -4.9811
    -4.5921  -4.5921  -3.5917  -3.5917  -2.3413  -2.3413  -1.9564  -1.9564
    -1.6616  -1.6616   1.5034   1.5034   1.6870   1.6870   2.7616   2.7616
     3.4411   3.4412

          k = 0.3750 0.2165 0.0000 ( 23872 PWs)   bands (ev):

   -61.3512 -61.3512 -37.2907 -37.2907 -34.8463 -34.8463 -34.6891 -34.6891
   -13.1783 -13.1782 -12.7787 -12.7786  -6.1450  -6.1450  -5.1267  -5.1267
    -4.6167  -4.6167  -3.6698  -3.6698  -2.4034  -2.4034  -1.8605  -1.8605
    -1.6167  -1.6167   1.4995   1.4995   1.7670   1.7670   2.8844   2.8844
     3.4962   3.4963

          k = 0.4000 0.2309 0.0000 ( 23846 PWs)   bands (ev):

   -61.3493 -61.3493 -37.2968 -37.2968 -34.8581 -34.8581 -34.6905 -34.6905
   -13.0617 -13.0617 -12.7338 -12.7337  -6.2567  -6.2567  -5.2518  -5.2518
    -4.6511  -4.6511  -3.7347  -3.7347  -2.4541  -2.4541  -1.7790  -1.7790
    -1.5453  -1.5453   1.5041   1.5041   1.8494   1.8494   2.9866   2.9867
     3.5398   3.5398

          k = 0.4250 0.2454 0.0000 ( 23824 PWs)   bands (ev):

   -61.3477 -61.3477 -37.3018 -37.3018 -34.8677 -34.8677 -34.6915 -34.6915
   -12.9646 -12.9646 -12.6968 -12.6968  -6.3514  -6.3514  -5.3528  -5.3528
    -4.6888  -4.6888  -3.7858  -3.7858  -2.4929  -2.4929  -1.7139  -1.7139
    -1.4644  -1.4644   1.5141   1.5141   1.9274   1.9274   3.0659   3.0659
     3.5725   3.5725

          k = 0.4500 0.2598 0.0000 ( 23810 PWs)   bands (ev):

   -61.3465 -61.3465 -37.3055 -37.3055 -34.8748 -34.8748 -34.6921 -34.6921
   -12.8914 -12.8914 -12.6693 -12.6693  -6.4235  -6.4235  -5.4271  -5.4271
    -4.7220  -4.7220  -3.8226  -3.8226  -2.5203  -2.5203  -1.6668  -1.6668
    -1.3912  -1.3912   1.5254   1.5254   1.9933   1.9933   3.1216   3.1216
     3.5953   3.5953

          k = 0.4750 0.2742 0.0000 ( 23800 PWs)   bands (ev):

   -61.3458 -61.3458 -37.3077 -37.3077 -34.8791 -34.8791 -34.6924 -34.6924
   -12.8458 -12.8458 -12.6523 -12.6523  -6.4685  -6.4685  -5.4726  -5.4726
    -4.7445  -4.7445  -3.8448  -3.8448  -2.5366  -2.5366  -1.6385  -1.6385
    -1.3404  -1.3404   1.5340   1.5340   2.0381   2.0382   3.1544   3.1544
     3.6087   3.6087

          k = 0.5000 0.2887 0.0000 ( 23768 PWs)   bands (ev):

   -61.3456 -61.3456 -37.3084 -37.3084 -34.8806 -34.8806 -34.6926 -34.6926
   -12.8304 -12.8304 -12.6466 -12.6466  -6.4839  -6.4839  -5.4879  -5.4879
    -4.7525  -4.7525  -3.8522  -3.8522  -2.5419  -2.5419  -1.6290  -1.6290
    -1.3223  -1.3223   1.5373   1.5373   2.0542   2.0542   3.1652   3.1652
     3.6132   3.6132

          k = 0.4917 0.3031 0.0000 ( 23776 PWs)   bands (ev):

   -61.3456 -61.3456 -37.3095 -37.3075 -34.8815 -34.8793 -34.6932 -34.6927
   -12.8314 -12.8265 -12.6459 -12.6455  -6.4812  -6.4784  -5.4918  -5.4906
    -4.7519  -4.7500  -3.8541  -3.8521  -2.5417  -2.5403  -1.6840  -1.6372
    -1.3317  -1.2787   1.5341   1.5442   2.0442   2.0666   3.1662   3.1757
     3.5954   3.6035

          k = 0.4833 0.3175 0.0000 ( 23792 PWs)   bands (ev):

   -61.3455 -61.3455 -37.3105 -37.3067 -34.8823 -34.8778 -34.6945 -34.6936
   -12.8297 -12.8199 -12.6434 -12.6427  -6.4702  -6.4647  -5.5023  -5.5000
    -4.7484  -4.7447  -3.8574  -3.8536  -2.5398  -2.5371  -1.7773  -1.7092
    -1.3057  -1.2253   1.5340   1.5544   2.0369   2.0818   3.1778   3.1976
     3.5516   3.5683

          k = 0.4750 0.3319 0.0000 ( 23796 PWs)   bands (ev):

   -61.3454 -61.3454 -37.3117 -37.3060 -34.8827 -34.8759 -34.6965 -34.6953
   -12.8253 -12.8106 -12.6392 -12.6381  -6.4511  -6.4428  -5.5192  -5.5158
    -4.7420  -4.7365  -3.8617  -3.8558  -2.5367  -2.5331  -1.8943  -1.8198
    -1.2678  -1.1748   1.5353   1.5663   2.0334   2.1007   3.1980   3.2297
     3.4862   3.5129

          k = 0.4666 0.3463 0.0000 ( 23784 PWs)   bands (ev):

   -61.3452 -61.3452 -37.3130 -37.3055 -34.8830 -34.8738 -34.6992 -34.6977
   -12.8182 -12.7987 -12.6334 -12.6320  -6.4240  -6.4129  -5.5424  -5.5381
    -4.7329  -4.7256  -3.8659  -3.8580  -2.5332  -2.5292  -2.0288  -1.9536
    -1.2306  -1.1309   1.5358   1.5772   2.0357   2.1245   3.2196   3.2670
     3.4084   3.4484

          k = 0.4583 0.3607 0.0000 ( 23784 PWs)   bands (ev):

   -61.3450 -61.3450 -37.3143 -37.3050 -34.8830 -34.8715 -34.7024 -34.7008
   -12.8086 -12.7845 -12.6260 -12.6243  -6.3889  -6.3752  -5.5716  -5.5664
    -4.7213  -4.7125  -3.8689  -3.8590  -2.5305  -2.5269  -2.1770  -2.1037
    -1.1975  -1.0934   1.5330   1.5833   2.0462   2.1544   3.2195   3.2652
     3.3669   3.4024

          k = 0.4499 0.3751 0.0000 ( 23800 PWs)   bands (ev):

   -61.3447 -61.3447 -37.3157 -37.3046 -34.8828 -34.8688 -34.7061 -34.7045
   -12.7968 -12.7681 -12.6173 -12.6152  -6.3462  -6.3298  -5.6064  -5.6004
    -4.7075  -4.6973  -3.8697  -3.8578  -2.5300  -2.5293  -2.3342  -2.2659
    -1.1685  -1.0611   1.5247   1.5811   2.0673   2.1915   3.1651   3.1775
     3.4116   3.4122

          k = 0.4416 0.3895 0.0000 ( 23812 PWs)   bands (ev):

   -61.3444 -61.3444 -37.3171 -37.3044 -34.8825 -34.8660 -34.7103 -34.7088
   -12.7829 -12.7498 -12.6073 -12.6049  -6.2961  -6.2771  -5.6460  -5.6394
    -4.6919  -4.6805  -3.8673  -3.8533  -2.5591  -2.5364  -2.4764  -2.4337
    -1.1425  -1.0324   1.5090   1.5679   2.1003   2.2361   3.0719   3.0762
     3.4590   3.4796

          k = 0.4332 0.4039 0.0000 ( 23814 PWs)   bands (ev):

   -61.3441 -61.3441 -37.3185 -37.3042 -34.8821 -34.8629 -34.7147 -34.7137
   -12.7672 -12.7298 -12.5963 -12.5936  -6.2388  -6.2172  -5.6897  -5.6827
    -4.6748  -4.6626  -3.8610  -3.8450  -2.7016  -2.6311  -2.5241  -2.5168
    -1.1181  -1.0055   1.4853   1.5433   2.1446   2.2879   2.9646   2.9777
     3.5221   3.5547

          k = 0.4249 0.4183 0.0000 ( 23838 PWs)   bands (ev):

   -61.3437 -61.3437 -37.3199 -37.3042 -34.8815 -34.8596 -34.7193 -34.7190
   -12.7500 -12.7087 -12.5845 -12.5816  -6.1747  -6.1507  -5.7364  -5.7291
    -4.6569  -4.6443  -3.8502  -3.8322  -2.8792  -2.8116  -2.5379  -2.5313
    -1.0937  -0.9788   1.4534   1.5079   2.1983   2.3462   2.8601   2.8793
     3.5926   3.6341

          k = 0.4165 0.4327 0.0000 ( 23830 PWs)   bands (ev):

   -61.3434 -61.3434 -37.3214 -37.3042 -34.8810 -34.8562 -34.7246 -34.7241
   -12.7317 -12.6866 -12.5721 -12.5690  -6.1043  -6.0778  -5.7849  -5.7776
    -4.6387  -4.6262  -3.8348  -3.8151  -3.0619  -2.9987  -2.5523  -2.5478
    -1.0682  -0.9508   1.4139   1.4633   2.2586   2.4092   2.7616   2.7855
     3.6664   3.7154

          k = 0.4082 0.4471 0.0000 ( 23816 PWs)   bands (ev):

   -61.3430 -61.3430 -37.3228 -37.3043 -34.8804 -34.8526 -34.7305 -34.7287
   -12.7127 -12.6641 -12.5595 -12.5561  -6.0281  -5.9991  -5.8341  -5.8269
    -4.6209  -4.6093  -3.8150  -3.7938  -3.2448  -3.1866  -2.5709  -2.5687
    -1.0406  -0.9206   1.3677   1.4112   2.3228   2.4750   2.6717   2.6995
     3.7409   3.7963

          k = 0.3998 0.4615 0.0000 ( 23812 PWs)   bands (ev):

   -61.3426 -61.3426 -37.3241 -37.3045 -34.8799 -34.8490 -34.7365 -34.7333
   -12.6934 -12.6416 -12.5469 -12.5433  -5.9480  -5.9156  -5.8812  -5.8753
    -4.6044  -4.5948  -3.7910  -3.7693  -3.4237  -3.3724  -2.5945  -2.5941
    -1.0104  -0.8875   1.3163   1.3534   2.3870   2.5355   2.5980   2.6247
     3.8136   3.8746

          k = 0.3915 0.4759 0.0000 ( 23806 PWs)   bands (ev):

   -61.3423 -61.3423 -37.3254 -37.3048 -34.8794 -34.8454 -34.7424 -34.7375
   -12.6743 -12.6197 -12.5346 -12.5309  -5.9334  -5.9235  -5.8563  -5.8261
    -4.5906  -4.5845  -3.7636  -3.7468  -3.5906  -3.5529  -2.6249  -2.6216
    -0.9776  -0.8513   1.2612   1.2919   2.4416   2.5088   2.5695   2.6217
     3.8823   3.9483

          k = 0.3831 0.4903 0.0000 ( 23800 PWs)   bands (ev):

   -61.3419 -61.3419 -37.3266 -37.3051 -34.8790 -34.8418 -34.7482 -34.7413
   -12.6559 -12.5987 -12.5230 -12.5192  -5.9760  -5.9676  -5.7673  -5.7340
    -4.5815  -4.5811  -3.7889  -3.7357  -3.7222  -3.6791  -2.6591  -2.6526
    -0.9424  -0.8125   1.2045   1.2286   2.4503   2.4514   2.5677   2.6860
     3.9452   4.0156

          k = 0.3748 0.5047 0.0000 ( 23796 PWs)   bands (ev):

   -61.3416 -61.3416 -37.3277 -37.3054 -34.8788 -34.8385 -34.7536 -34.7447
   -12.6388 -12.5794 -12.5123 -12.5084  -6.0156  -6.0077  -5.6743  -5.6393
    -4.5889  -4.5803  -3.9214  -3.8818  -3.7018  -3.6586  -2.6958  -2.6857
    -0.9061  -0.7721   1.1483   1.1661   2.4004   2.4196   2.6142   2.7486
     4.0005   4.0747

          k = 0.3664 0.5192 0.0000 ( 23794 PWs)   bands (ev):

   -61.3413 -61.3413 -37.3286 -37.3057 -34.8787 -34.8354 -34.7585 -34.7475
   -12.6234 -12.5622 -12.5029 -12.4990  -6.0502  -6.0425  -5.5803  -5.5440
    -4.6137  -4.5921  -4.0394  -4.0168  -3.6706  -3.6269  -2.7330  -2.7193
    -0.8703  -0.7321   1.0955   1.1071   2.3608   2.3862   2.6666   2.8056
     4.0470   4.1243

          k = 0.3581 0.5336 0.0000 ( 23802 PWs)   bands (ev):

   -61.3411 -61.3411 -37.3294 -37.3060 -34.8787 -34.8329 -34.7626 -34.7497
   -12.6104 -12.5478 -12.4951 -12.4912  -6.0785  -6.0710  -5.4882  -5.4512
    -4.6597  -4.6227  -4.1255  -4.1202  -3.6417  -3.5957  -2.7683  -2.7509
    -0.8374  -0.6950   1.0489   1.0549   2.3314   2.3600   2.7134   2.8544
     4.0836   4.1634

          k = 0.3497 0.5480 0.0000 ( 23806 PWs)   bands (ev):

   -61.3409 -61.3409 -37.3300 -37.3062 -34.8788 -34.8309 -34.7658 -34.7513
   -12.6004 -12.5367 -12.4893 -12.4853  -6.0997  -6.0923  -5.4040  -5.3668
    -4.7218  -4.6716  -4.1857  -4.1774  -3.6177  -3.5691  -2.7982  -2.7775
    -0.8101  -0.6641   1.0119   1.0133   2.3114   2.3421   2.7503   2.8924
     4.1097   4.1914

          k = 0.3414 0.5624 0.0000 ( 23810 PWs)   bands (ev):

   -61.3408 -61.3408 -37.3303 -37.3064 -34.8789 -34.8297 -34.7677 -34.7522
   -12.5940 -12.5297 -12.4855 -12.4816  -6.1129  -6.1057  -5.3392  -5.3025
    -4.7802  -4.7224  -4.2177  -4.2020  -3.6013  -3.5507  -2.8190  -2.7958
    -0.7916  -0.6430   0.9859   0.9877   2.3002   2.3320   2.7743   2.9170
     4.1252   4.2080

          k = 0.3330 0.5768 0.0000 ( 23784 PWs)   bands (ev):

   -61.3408 -61.3408 -37.3305 -37.3065 -34.8790 -34.8293 -34.7684 -34.7525
   -12.5916 -12.5271 -12.4842 -12.4802  -6.1176  -6.1104  -5.3129  -5.2766
    -4.8062  -4.7461  -4.2264  -4.2087  -3.5952  -3.5438  -2.8269  -2.8027
    -0.7848  -0.6352   0.9760   0.9790   2.2966   2.3288   2.7830   2.9259
     4.1304   4.2136

          k = 0.3164 0.5479 0.0000 ( 23810 PWs)   bands (ev):

   -61.3410 -61.3410 -37.3299 -37.3062 -34.8786 -34.8305 -34.7660 -34.7514
   -12.6021 -12.5384 -12.4899 -12.4859  -6.0979  -6.0906  -5.4008  -5.3651
    -4.7105  -4.6552  -4.2026  -4.1904  -3.6204  -3.5722  -2.7936  -2.7731
    -0.8144  -0.6687   1.0150   1.0165   2.3081   2.3384   2.7456   2.8873
     4.1117   4.1932

          k = 0.2997 0.5191 0.0000 ( 23806 PWs)   bands (ev):

   -61.3415 -61.3415 -37.3281 -37.3051 -34.8769 -34.8328 -34.7601 -34.7484
   -12.6350 -12.5737 -12.5070 -12.5029  -6.0388  -6.0310  -5.5517  -5.5210
    -4.5323  -4.4880  -4.1416  -4.1375  -3.6858  -3.6437  -2.7046  -2.6921
    -0.8968  -0.7604   1.1117   1.1234   2.3332   2.3569   2.6372   2.7737
     4.0642   4.1405

          k = 0.2831 0.4903 0.0000 ( 23832 PWs)   bands (ev):

   -61.3425 -61.3424 -37.3249 -37.3032 -34.8733 -34.8344 -34.7523 -34.7441
   -12.6928 -12.6355 -12.5358 -12.5318  -5.9390  -5.9304  -5.6841  -5.6612
    -4.3771  -4.3539  -4.0424  -4.0076  -3.7706  -3.7326  -2.5807  -2.5763
    -1.0143  -0.8881   1.2423   1.2642   2.3590   2.3591   2.4821   2.5970
     4.0006   4.0677

          k = 0.2664 0.4614 0.0000 ( 23830 PWs)   bands (ev):

   -61.3438 -61.3438 -37.3203 -37.3002 -34.8674 -34.8341 -34.7436 -34.7387
   -12.7762 -12.7241 -12.5759 -12.5720  -5.7996  -5.7902  -5.7760  -5.7619
    -4.2973  -4.2882  -3.8922  -3.8654  -3.7992  -3.7959  -2.4420  -2.4393
    -1.1443  -1.0268   1.3726   1.3990   2.2359   2.3715   2.3837   2.4036
     3.9338   3.9871

          k = 0.2498 0.4326 0.0000 ( 23782 PWs)   bands (ev):

   -61.3456 -61.3456 -37.3143 -37.2960 -34.8590 -34.8313 -34.7345 -34.7328
   -12.8844 -12.8384 -12.6261 -12.6225  -5.8237  -5.8191  -5.6218  -5.6104
    -4.2767  -4.2693  -3.9360  -3.9165  -3.6276  -3.5718  -2.3007  -2.2918
    -1.2679  -1.1573   1.4681   1.4846   2.0507   2.1671   2.3614   2.3699
     3.8727   3.9085

          k = 0.2331 0.4037 0.0000 ( 23809 PWs)   bands (ev):

   -61.3479 -61.3479 -37.3069 -37.2906 -34.8480 -34.8260 -34.7263 -34.7252
   -13.0147 -12.9752 -12.6848 -12.6816  -5.8318  -5.8275  -5.4103  -5.3968
    -4.2936  -4.2838  -3.9912  -3.9691  -3.3987  -3.3334  -2.1606  -2.1461
    -1.3732  -1.2681   1.4721   1.4934   1.9269   1.9937   2.3117   2.3210
     3.8186   3.8352

          k = 0.2165 0.3749 0.0000 ( 23829 PWs)   bands (ev):

   -61.3505 -61.3505 -37.2982 -37.2841 -34.8347 -34.8181 -34.7194 -34.7159
   -13.1632 -13.1303 -12.7501 -12.7474  -5.8065  -5.7944  -5.1701  -5.1538
    -4.3391  -4.3267  -4.0203  -3.9970  -3.1732  -3.1016  -2.0279  -2.0081
    -1.4548  -1.3547   1.3697   1.4336   1.8799   1.8953   2.2280   2.2530
     3.7626   3.7645

          k = 0.1998 0.3461 0.0000 ( 23863 PWs)   bands (ev):

   -61.3534 -61.3534 -37.2885 -37.2766 -34.8196 -34.8081 -34.7119 -34.7064
   -13.3252 -13.2985 -12.8201 -12.8178  -5.7535  -5.7350  -4.9083  -4.8885
    -4.4040  -4.3900  -4.0177  -3.9926  -2.9663  -2.8894  -1.9081  -1.8829
    -1.5111  -1.4165   1.2594   1.3395   1.8444   1.8532   2.1275   2.1654
     3.6810   3.6988

          k = 0.1832 0.3172 0.0000 ( 23851 PWs)   bands (ev):

   -61.3567 -61.3567 -37.2781 -37.2683 -34.8034 -34.7964 -34.7035 -34.6964
   -13.4953 -13.4743 -12.8927 -12.8908  -5.6889  -5.6662  -4.6360  -4.6121
    -4.4713  -4.4567  -3.9767  -3.9489  -2.7961  -2.7160  -1.8053  -1.7743
    -1.5358  -1.4499   1.1926   1.2718   1.8047   1.8208   2.0216   2.0694
     3.5806   3.6109

          k = 0.1665 0.2884 0.0000 ( 23871 PWs)   bands (ev):

   -61.3601 -61.3601 -37.2671 -37.2593 -34.7872 -34.7840 -34.6937 -34.6857
   -13.6686 -13.6525 -12.9658 -12.9644  -5.6369  -5.6136  -4.5141  -4.5045
    -4.3700  -4.3392  -3.8846  -3.8544  -2.6863  -2.6093  -1.7218  -1.6858
    -1.5134  -1.4419   1.1841   1.2542   1.7703   1.7861   1.9214   1.9765
     3.4555   3.4948

          k = 0.1499 0.2595 0.0000 ( 23871 PWs)   bands (ev):

   -61.3636 -61.3636 -37.2560 -37.2500 -34.7721 -34.7716 -34.6819 -34.6738
   -13.8400 -13.8281 -13.0378 -13.0368  -5.6258  -5.6059  -4.5001  -4.4958
    -4.1348  -4.1059  -3.7201  -3.6932  -2.6552  -2.5894  -1.6580  -1.6208
    -1.4317  -1.3787   1.2294   1.2851   1.7504   1.7603   1.8387   1.8978
     3.3049   3.3503

          k = 0.1332 0.2307 0.0000 ( 23895 PWs)   bands (ev):

   -61.3671 -61.3671 -37.2450 -37.2407 -34.7604 -34.7594 -34.6678 -34.6605
   -14.0052 -13.9968 -13.1069 -13.1061  -5.6704  -5.6563  -4.4173  -4.4146
    -3.9380  -3.9178  -3.4838  -3.4676  -2.6970  -2.6453  -1.6173  -1.5819
    -1.3020  -1.2668   1.3141   1.3514   1.7421   1.7533   1.7978   1.8475
     3.1332   3.1823

          k = 0.1166 0.2019 0.0000 ( 23921 PWs)   bands (ev):

   -61.3705 -61.3705 -37.2346 -37.2316 -34.7508 -34.7494 -34.6515 -34.6457
   -14.1602 -14.1545 -13.1715 -13.1710  -5.7602  -5.7514  -4.2783  -4.2701
    -3.7580  -3.7463  -3.2171  -3.2114  -2.7856  -2.7460  -1.6025  -1.5698
    -1.1540  -1.1330   1.4236   1.4405   1.7195   1.7631   1.8277   1.8566
     2.9480   2.9985

          k = 0.0999 0.1730 0.0000 ( 23925 PWs)   bands (ev):

   -61.3738 -61.3738 -37.2250 -37.2231 -34.7432 -34.7419 -34.6341 -34.6300
   -14.3016 -14.2979 -13.2303 -13.2300  -5.8734  -5.8683  -4.1021  -4.0909
    -3.5747  -3.5691  -2.9610  -2.9562  -2.8914  -2.8637  -1.6147  -1.5855
    -1.0151  -1.0038   1.5501   1.5509   1.7208   1.7738   1.9033   1.9302
     2.7589   2.8090

          k = 0.0833 0.1442 0.0000 ( 23941 PWs)   bands (ev):

   -61.3767 -61.3767 -37.2165 -37.2153 -34.7373 -34.7365 -34.6168 -34.6142
   -14.4263 -14.4242 -13.2821 -13.2819  -5.9912  -5.9884  -3.9110  -3.8991
    -3.3809  -3.3802  -3.0081  -2.9817  -2.7245  -2.7196  -1.6549  -1.6302
    -0.9014  -0.8962   1.6823   1.6964   1.7563   1.8106   2.0021   2.0296
     2.5766   2.6245

          k = 0.0666 0.1154 0.0000 ( 23943 PWs)   bands (ev):

   -61.3792 -61.3792 -37.2093 -37.2087 -34.7331 -34.7326 -34.6009 -34.5995
   -14.5318 -14.5307 -13.3259 -13.3258  -6.1005  -6.0991  -3.7240  -3.7128
    -3.1869  -3.1771  -3.1082  -3.0800  -2.5297  -2.5218  -1.7239  -1.7047
    -0.8184  -0.8164   1.8171   1.8225   1.8641   1.8888   2.1045   2.1304
     2.4121   2.4562

          k = 0.0500 0.0865 0.0000 ( 23883 PWs)   bands (ev):

   -61.3813 -61.3813 -37.2035 -37.2033 -34.7301 -34.7299 -34.5875 -34.5869
   -14.6161 -14.6156 -13.3609 -13.3609  -6.1927  -6.1922  -3.5576  -3.5485
    -3.1914  -3.1832  -2.9663  -2.9626  -2.3767  -2.3683  -1.8216  -1.8081
    -0.7637  -0.7631   1.9023   1.9247   2.0307   2.0309   2.1934   2.2169
     2.2776   2.3176

          k = 0.0333 0.0577 0.0000 ( 23921 PWs)   bands (ev):

   -61.3828 -61.3828 -37.1993 -37.1993 -34.7282 -34.7281 -34.5773 -34.5771
   -14.6775 -14.6774 -13.3863 -13.3863  -6.2623  -6.2621  -3.4278  -3.4217
    -3.2499  -3.2437  -2.7571  -2.7568  -2.2690  -2.2621  -1.9448  -1.9367
    -0.7312  -0.7310   1.9854   2.0021   2.1604   2.1620   2.1956   2.2185
     2.2807   2.2872

          k = 0.0167 0.0288 0.0000 ( 23927 PWs)   bands (ev):

   -61.3837 -61.3837 -37.1968 -37.1968 -34.7271 -34.7271 -34.5710 -34.5710
   -14.7148 -14.7148 -13.4018 -13.4018  -6.3054  -6.3054  -3.3530  -3.3512
    -3.2750  -3.2732  -2.5641  -2.5639  -2.2113  -2.2080  -2.0769  -2.0737
    -0.7145  -0.7145   2.0381   2.0429   2.1293   2.1334   2.2959   2.3018
     2.3217   2.3271

          k = 0.0000 0.0000 0.0000 ( 23951 PWs)   bands (ev):

   -61.3840 -61.3840 -37.1960 -37.1960 -34.7268 -34.7268 -34.5689 -34.5689
   -14.7274 -14.7274 -13.4070 -13.4070  -6.3200  -6.3200  -3.3380  -3.3380
    -3.2722  -3.2722  -2.4541  -2.4541  -2.2217  -2.2217  -2.1350  -2.1350
    -0.7095  -0.7095   2.0460   2.0460   2.1275   2.1275   2.3372   2.3372
     2.3403   2.3403

     Writing all to output data dir ./tmp/mos2.save/

     init_run     :      2.14s CPU      2.59s WALL (       1 calls)
     electrons    :     92.38s CPU     93.31s WALL (       1 calls)

     Called by init_run:
     wfcinit      :      0.00s CPU      0.00s WALL (       1 calls)
     wfcinit:atom :      0.03s CPU      0.06s WALL (      61 calls)
     wfcinit:wfcr :      3.69s CPU      3.72s WALL (      61 calls)
     potinit      :      0.22s CPU      0.24s WALL (       1 calls)
     hinit0       :      1.35s CPU      1.37s WALL (       1 calls)

     Called by electrons:
     c_bands      :     92.38s CPU     93.31s WALL (       1 calls)
     v_of_rho     :      0.00s CPU      0.01s WALL (       1 calls)
     v_h          :      0.00s CPU      0.01s WALL (       1 calls)
     v_xc         :      0.00s CPU      0.01s WALL (       1 calls)
     newd         :      0.41s CPU      0.81s WALL (       1 calls)

     Called by c_bands:
     init_us_2    :      0.02s CPU      0.03s WALL (      61 calls)
     init_us_2:cp :      0.02s CPU      0.03s WALL (      61 calls)
     cegterg      :     88.03s CPU     88.80s WALL (     122 calls)

     Called by sum_band:

     Called by *egterg:
     cdiaghg      :      2.17s CPU      2.18s WALL (    1709 calls)
     cegterg:over :      4.15s CPU      4.16s WALL (    1648 calls)
     cegterg:upda :      1.85s CPU      1.85s WALL (    1648 calls)
     cegterg:last :      6.97s CPU      6.97s WALL (    1479 calls)
     h_psi        :     71.83s CPU     72.59s WALL (    1831 calls)
     s_psi        :      1.49s CPU      1.50s WALL (    1831 calls)
     g_psi        :      0.49s CPU      0.49s WALL (    1648 calls)

     Called by h_psi:
     h_psi:calbec :      3.20s CPU      3.24s WALL (    1831 calls)
     vloc_psi     :     66.19s CPU     66.89s WALL (    1831 calls)
     add_vuspsi   :      1.81s CPU      1.83s WALL (    1831 calls)

     General routines
     calbec       :      3.19s CPU      3.23s WALL (    1831 calls)
     fft          :      0.38s CPU      0.39s WALL (      12 calls)
     ffts         :      0.19s CPU      0.19s WALL (       4 calls)
     fftw         :     50.53s CPU     51.07s WALL (  212828 calls)
     interpolate  :      0.20s CPU      0.20s WALL (       4 calls)
     davcio       :      0.09s CPU      0.16s WALL (     122 calls)

     Parallel routines

     PWSCF        :   1m36.61s CPU   1m40.14s WALL


   This run was terminated on:  12:27:13  19Jun2025            

=------------------------------------------------------------------------------=
   JOB DONE.
=------------------------------------------------------------------------------=
