
     Program PWSCF v.7.2 starts on 19Jun2025 at 13:40:49 

     This program is part of the open-source Quantum ESPRESSO suite
     for quantum simulation of materials; please cite
         "P. Giannozzi et al., J. Phys.:Condens. Matter 21 395502 (2009);
         "P. Giannozzi et al., J. Phys.:Condens. Matter 29 465901 (2017);
         "P. Giannozzi et al., J. Chem. Phys. 152 154105 (2020);
          URL http://www.quantum-espresso.org", 
     in publications or presentations arising from this work. More details at
     http://www.quantum-espresso.org/quote

     Parallel version (MPI & OpenMP), running on      10 processor cores
     Number of MPI processes:                10
     Threads/MPI process:                     1

     MPI processes distributed on     1 nodes
     64378 MiB available memory on the printing compute node when the environment starts

     Reading input from ptse2.bands.in

     Current dimensions of program PWSCF are:
     Max number of different atomic species (ntypx) = 10
     Max number of k-points (npk) =  40000
     Max angular momentum in pseudopotentials (lmaxx) =  4

     Atomic positions and unit cell read from directory:
     ./tmp/ptse2.save/
     Atomic positions from file used, from input discarded

     Message from routine setup:
     using ibrav=0 with symmetry is DISCOURAGED, use correct ibrav instead

     R & G space division:  proc/nbgrp/npool/nimage =      10
     Subspace diagonalization in iterative solution of the eigenvalue problem:
     a serial algorithm will be used


     Parallelization info
     --------------------
     sticks:   dense  smooth     PW     G-vecs:    dense   smooth      PW
     Min         409     163     45               170929    43257    6321
     Max         410     164     46               170954    43296    6342
     Sum        4093    1639    451              1709389   432857   63275

     Using Slab Decomposition



     bravais-lattice index     =            0
     lattice parameter (alat)  =       7.0430  a.u.
     unit-cell volume          =    2435.3830 (a.u.)^3
     number of atoms/cell      =            3
     number of atomic types    =            2
     number of electrons       =        22.00
     number of Kohn-Sham states=           15
     kinetic-energy cutoff     =     120.0000  Ry
     charge density cutoff     =    1200.0000  Ry
     Exchange-correlation= LDA
                           (   1   1   0   0   0   0   0)

     celldm(1)=   7.043009  celldm(2)=   0.000000  celldm(3)=   0.000000
     celldm(4)=   0.000000  celldm(5)=   0.000000  celldm(6)=   0.000000

     crystal axes: (cart. coord. in units of alat)
               a(1) = (   1.000000   0.000000   0.000000 )  
               a(2) = (  -0.500000   0.866025   0.000000 )  
               a(3) = (   0.000000   0.000000   8.049369 )  

     reciprocal axes: (cart. coord. in units 2 pi/alat)
               b(1) = (  1.000000  0.577350 -0.000000 )  
               b(2) = (  0.000000  1.154701  0.000000 )  
               b(3) = (  0.000000 -0.000000  0.124233 )  


     PseudoPot. # 1 for Pt read from file:
     /opt/project/dorye_projects/brazil_kpm/lda_pp/Pt.UPF
     MD5 check sum: 1074774312c4d24aa76e1639557e07bf
     Pseudo is Ultrasoft + core correction, Zval = 10.0
     Generated using "atomic" code by A. Dal Corso  v.5.0.2 svn rev. 9415
     Using radial grid of 1277 points,  6 beta functions with: 
                l(1) =   0
                l(2) =   0
                l(3) =   1
                l(4) =   1
                l(5) =   2
                l(6) =   2
     Q(r) pseudized with 0 coefficients 


     PseudoPot. # 2 for Se read from file:
     /opt/project/dorye_projects/brazil_kpm/lda_pp/Se.UPF
     MD5 check sum: 25603cecb1b2b0d484ba6e75ea72c72e
     Pseudo is Ultrasoft + core correction, Zval =  6.0
     Generated using "atomic" code by A. Dal Corso  v.5.0.2 svn rev. 9415
     Using radial grid of 1211 points,  4 beta functions with: 
                l(1) =   0
                l(2) =   0
                l(3) =   1
                l(4) =   1
     Q(r) pseudized with 0 coefficients 


     atomic species   valence    mass     pseudopotential
        Pt            10.00   195.08000     Pt( 1.00)
        Se             6.00    78.97100     Se( 1.00)

      6 Sym. Ops. (no inversion) found


                                    s                        frac. trans.

      isym =  1     identity                                     

 cryst.   s( 1) = (     1          0          0      )
                  (     0          1          0      )
                  (     0          0          1      )

 cart.    s( 1) = (  1.0000000  0.0000000  0.0000000 )
                  (  0.0000000  1.0000000  0.0000000 )
                  (  0.0000000  0.0000000  1.0000000 )


      isym =  2     120 deg rotation - cryst. axis [0,0,1]       

 cryst.   s( 2) = (     0          1          0      )
                  (    -1         -1          0      )
                  (     0          0          1      )

 cart.    s( 2) = ( -0.5000000 -0.8660254  0.0000000 )
                  (  0.8660254 -0.5000000  0.0000000 )
                  (  0.0000000  0.0000000  1.0000000 )


      isym =  3     120 deg rotation - cryst. axis [0,0,-1]      

 cryst.   s( 3) = (    -1         -1          0      )
                  (     1          0          0      )
                  (     0          0          1      )

 cart.    s( 3) = ( -0.5000000  0.8660254  0.0000000 )
                  ( -0.8660254 -0.5000000  0.0000000 )
                  (  0.0000000  0.0000000  1.0000000 )


      isym =  4     inv. 180 deg rotation - cart. axis [1,0,0]   

 cryst.   s( 4) = (    -1          0          0      )
                  (     1          1          0      )
                  (     0          0          1      )

 cart.    s( 4) = ( -1.0000000  0.0000000  0.0000000 )
                  (  0.0000000  1.0000000  0.0000000 )
                  (  0.0000000  0.0000000  1.0000000 )


      isym =  5     inv. 180 deg rotation - cryst. axis [0,1,0]  

 cryst.   s( 5) = (     1          1          0      )
                  (     0         -1          0      )
                  (     0          0          1      )

 cart.    s( 5) = (  0.5000000  0.8660254  0.0000000 )
                  (  0.8660254 -0.5000000  0.0000000 )
                  (  0.0000000  0.0000000  1.0000000 )


      isym =  6     inv. 180 deg rotation - cryst. axis [1,1,0]  

 cryst.   s( 6) = (     0         -1          0      )
                  (    -1          0          0      )
                  (     0          0          1      )

 cart.    s( 6) = (  0.5000000 -0.8660254  0.0000000 )
                  ( -0.8660254 -0.5000000  0.0000000 )
                  (  0.0000000  0.0000000  1.0000000 )


   Cartesian axes

     site n.     atom                  positions (alat units)
         1           Pt  tau(   1) = (   0.0000000   0.0000000   1.3635632  )
         2           Se  tau(   2) = (  -0.0000005   0.5773506   1.7112718  )
         3           Se  tau(   3) = (   0.5000005   0.2886748   1.0158546  )

   Crystallographic axes

     site n.     atom                  positions (cryst. coord.)
         1           Pt  tau(   1) = (  0.0000000  0.0000000  0.1694000  )
         2           Se  tau(   2) = (  0.3333330  0.6666670  0.2125970  )
         3           Se  tau(   3) = (  0.6666670  0.3333330  0.1262030  )

     number of k points=    61  Marzari-Vanderbilt smearing, width (Ry)=  0.0030
                       cart. coord. in units 2pi/alat
        k(    1) = (   0.0000000   0.0000000   0.0000000), wk =   0.0327869
        k(    2) = (   0.0250000   0.0144338   0.0000000), wk =   0.0327869
        k(    3) = (   0.0500000   0.0288675   0.0000000), wk =   0.0327869
        k(    4) = (   0.0750000   0.0433013   0.0000000), wk =   0.0327869
        k(    5) = (   0.1000000   0.0577350   0.0000000), wk =   0.0327869
        k(    6) = (   0.1250000   0.0721688   0.0000000), wk =   0.0327869
        k(    7) = (   0.1500000   0.0866025   0.0000000), wk =   0.0327869
        k(    8) = (   0.1750000   0.1010363   0.0000000), wk =   0.0327869
        k(    9) = (   0.2000000   0.1154701   0.0000000), wk =   0.0327869
        k(   10) = (   0.2250000   0.1299038   0.0000000), wk =   0.0327869
        k(   11) = (   0.2500000   0.1443376   0.0000000), wk =   0.0327869
        k(   12) = (   0.2750000   0.1587713   0.0000000), wk =   0.0327869
        k(   13) = (   0.3000000   0.1732051   0.0000000), wk =   0.0327869
        k(   14) = (   0.3250000   0.1876388   0.0000000), wk =   0.0327869
        k(   15) = (   0.3500000   0.2020726   0.0000000), wk =   0.0327869
        k(   16) = (   0.3750000   0.2165064   0.0000000), wk =   0.0327869
        k(   17) = (   0.4000000   0.2309401   0.0000000), wk =   0.0327869
        k(   18) = (   0.4250000   0.2453739   0.0000000), wk =   0.0327869
        k(   19) = (   0.4500000   0.2598076   0.0000000), wk =   0.0327869
        k(   20) = (   0.4750000   0.2742414   0.0000000), wk =   0.0327869
        k(   21) = (   0.5000000   0.2886751   0.0000000), wk =   0.0327869
        k(   22) = (   0.4916500   0.3030800   0.0000000), wk =   0.0327869
        k(   23) = (   0.4833000   0.3174849   0.0000000), wk =   0.0327869
        k(   24) = (   0.4749500   0.3318898   0.0000000), wk =   0.0327869
        k(   25) = (   0.4666000   0.3462947   0.0000000), wk =   0.0327869
        k(   26) = (   0.4582500   0.3606996   0.0000000), wk =   0.0327869
        k(   27) = (   0.4499000   0.3751045   0.0000000), wk =   0.0327869
        k(   28) = (   0.4415500   0.3895094   0.0000000), wk =   0.0327869
        k(   29) = (   0.4332000   0.4039142   0.0000000), wk =   0.0327869
        k(   30) = (   0.4248500   0.4183191   0.0000000), wk =   0.0327869
        k(   31) = (   0.4165000   0.4327240   0.0000000), wk =   0.0327869
        k(   32) = (   0.4081500   0.4471289   0.0000000), wk =   0.0327869
        k(   33) = (   0.3998000   0.4615338   0.0000000), wk =   0.0327869
        k(   34) = (   0.3914500   0.4759387   0.0000000), wk =   0.0327869
        k(   35) = (   0.3831000   0.4903436   0.0000000), wk =   0.0327869
        k(   36) = (   0.3747500   0.5047485   0.0000000), wk =   0.0327869
        k(   37) = (   0.3664000   0.5191534   0.0000000), wk =   0.0327869
        k(   38) = (   0.3580500   0.5335583   0.0000000), wk =   0.0327869
        k(   39) = (   0.3497000   0.5479631   0.0000000), wk =   0.0327869
        k(   40) = (   0.3413500   0.5623680   0.0000000), wk =   0.0327869
        k(   41) = (   0.3330000   0.5767729   0.0000000), wk =   0.0327869
        k(   42) = (   0.3163500   0.5479343   0.0000000), wk =   0.0327869
        k(   43) = (   0.2997000   0.5190956   0.0000000), wk =   0.0327869
        k(   44) = (   0.2830500   0.4902570   0.0000000), wk =   0.0327869
        k(   45) = (   0.2664000   0.4614183   0.0000000), wk =   0.0327869
        k(   46) = (   0.2497500   0.4325797   0.0000000), wk =   0.0327869
        k(   47) = (   0.2331000   0.4037410   0.0000000), wk =   0.0327869
        k(   48) = (   0.2164500   0.3749024   0.0000000), wk =   0.0327869
        k(   49) = (   0.1998000   0.3460638   0.0000000), wk =   0.0327869
        k(   50) = (   0.1831500   0.3172251   0.0000000), wk =   0.0327869
        k(   51) = (   0.1665000   0.2883865   0.0000000), wk =   0.0327869
        k(   52) = (   0.1498500   0.2595478   0.0000000), wk =   0.0327869
        k(   53) = (   0.1332000   0.2307092   0.0000000), wk =   0.0327869
        k(   54) = (   0.1165500   0.2018705   0.0000000), wk =   0.0327869
        k(   55) = (   0.0999000   0.1730319   0.0000000), wk =   0.0327869
        k(   56) = (   0.0832500   0.1441932   0.0000000), wk =   0.0327869
        k(   57) = (   0.0666000   0.1153546   0.0000000), wk =   0.0327869
        k(   58) = (   0.0499500   0.0865159   0.0000000), wk =   0.0327869
        k(   59) = (   0.0333000   0.0576773   0.0000000), wk =   0.0327869
        k(   60) = (   0.0166500   0.0288386   0.0000000), wk =   0.0327869
        k(   61) = (   0.0000000   0.0000000   0.0000000), wk =   0.0327869

                       cryst. coord.
        k(    1) = (   0.0000000   0.0000000   0.0000000), wk =   0.0327869
        k(    2) = (   0.0250000   0.0000000   0.0000000), wk =   0.0327869
        k(    3) = (   0.0500000   0.0000000   0.0000000), wk =   0.0327869
        k(    4) = (   0.0750000   0.0000000   0.0000000), wk =   0.0327869
        k(    5) = (   0.1000000   0.0000000   0.0000000), wk =   0.0327869
        k(    6) = (   0.1250000   0.0000000   0.0000000), wk =   0.0327869
        k(    7) = (   0.1500000   0.0000000   0.0000000), wk =   0.0327869
        k(    8) = (   0.1750000   0.0000000   0.0000000), wk =   0.0327869
        k(    9) = (   0.2000000   0.0000000   0.0000000), wk =   0.0327869
        k(   10) = (   0.2250000   0.0000000   0.0000000), wk =   0.0327869
        k(   11) = (   0.2500000   0.0000000   0.0000000), wk =   0.0327869
        k(   12) = (   0.2750000   0.0000000   0.0000000), wk =   0.0327869
        k(   13) = (   0.3000000   0.0000000   0.0000000), wk =   0.0327869
        k(   14) = (   0.3250000   0.0000000   0.0000000), wk =   0.0327869
        k(   15) = (   0.3500000   0.0000000   0.0000000), wk =   0.0327869
        k(   16) = (   0.3750000   0.0000000   0.0000000), wk =   0.0327869
        k(   17) = (   0.4000000   0.0000000   0.0000000), wk =   0.0327869
        k(   18) = (   0.4250000   0.0000000   0.0000000), wk =   0.0327869
        k(   19) = (   0.4500000   0.0000000   0.0000000), wk =   0.0327869
        k(   20) = (   0.4750000   0.0000000   0.0000000), wk =   0.0327869
        k(   21) = (   0.5000000   0.0000000   0.0000000), wk =   0.0327869
        k(   22) = (   0.4916500   0.0166500   0.0000000), wk =   0.0327869
        k(   23) = (   0.4833000   0.0333000   0.0000000), wk =   0.0327869
        k(   24) = (   0.4749500   0.0499500   0.0000000), wk =   0.0327869
        k(   25) = (   0.4666000   0.0666000   0.0000000), wk =   0.0327869
        k(   26) = (   0.4582500   0.0832500   0.0000000), wk =   0.0327869
        k(   27) = (   0.4499000   0.0999000   0.0000000), wk =   0.0327869
        k(   28) = (   0.4415500   0.1165500   0.0000000), wk =   0.0327869
        k(   29) = (   0.4332000   0.1332000   0.0000000), wk =   0.0327869
        k(   30) = (   0.4248500   0.1498500   0.0000000), wk =   0.0327869
        k(   31) = (   0.4165000   0.1665000   0.0000000), wk =   0.0327869
        k(   32) = (   0.4081500   0.1831500   0.0000000), wk =   0.0327869
        k(   33) = (   0.3998000   0.1998000   0.0000000), wk =   0.0327869
        k(   34) = (   0.3914500   0.2164500   0.0000000), wk =   0.0327869
        k(   35) = (   0.3831000   0.2331000   0.0000000), wk =   0.0327869
        k(   36) = (   0.3747500   0.2497500   0.0000000), wk =   0.0327869
        k(   37) = (   0.3664000   0.2664000   0.0000000), wk =   0.0327869
        k(   38) = (   0.3580500   0.2830500   0.0000000), wk =   0.0327869
        k(   39) = (   0.3497000   0.2997000   0.0000000), wk =   0.0327869
        k(   40) = (   0.3413500   0.3163500   0.0000000), wk =   0.0327869
        k(   41) = (   0.3330000   0.3330000   0.0000000), wk =   0.0327869
        k(   42) = (   0.3163500   0.3163500   0.0000000), wk =   0.0327869
        k(   43) = (   0.2997000   0.2997000   0.0000000), wk =   0.0327869
        k(   44) = (   0.2830500   0.2830500   0.0000000), wk =   0.0327869
        k(   45) = (   0.2664000   0.2664000   0.0000000), wk =   0.0327869
        k(   46) = (   0.2497500   0.2497500   0.0000000), wk =   0.0327869
        k(   47) = (   0.2331000   0.2331000   0.0000000), wk =   0.0327869
        k(   48) = (   0.2164500   0.2164500   0.0000000), wk =   0.0327869
        k(   49) = (   0.1998000   0.1998000   0.0000000), wk =   0.0327869
        k(   50) = (   0.1831500   0.1831500   0.0000000), wk =   0.0327869
        k(   51) = (   0.1665000   0.1665000   0.0000000), wk =   0.0327869
        k(   52) = (   0.1498500   0.1498500   0.0000000), wk =   0.0327869
        k(   53) = (   0.1332000   0.1332000   0.0000000), wk =   0.0327869
        k(   54) = (   0.1165500   0.1165500   0.0000000), wk =   0.0327869
        k(   55) = (   0.0999000   0.0999000   0.0000000), wk =   0.0327869
        k(   56) = (   0.0832500   0.0832500   0.0000000), wk =   0.0327869
        k(   57) = (   0.0666000   0.0666000   0.0000000), wk =   0.0327869
        k(   58) = (   0.0499500   0.0499500   0.0000000), wk =   0.0327869
        k(   59) = (   0.0333000   0.0333000   0.0000000), wk =   0.0327869
        k(   60) = (   0.0166500   0.0166500   0.0000000), wk =   0.0327869
        k(   61) = (   0.0000000   0.0000000   0.0000000), wk =   0.0327869

     Dense  grid:  1709389 G-vectors     FFT dimensions: (  80,  80, 625)

     Smooth grid:   432857 G-vectors     FFT dimensions: (  50,  50, 400)

     Dynamical RAM for                 wfc:       1.24 MB

     Dynamical RAM for     wfc (w. buffer):       1.24 MB

     Dynamical RAM for           str. fact:       5.22 MB

     Dynamical RAM for           local pot:       0.00 MB

     Dynamical RAM for          nlocal pot:       2.80 MB

     Dynamical RAM for                qrad:       5.56 MB

     Dynamical RAM for          rho,v,vnew:      17.05 MB

     Dynamical RAM for           G-vectors:      10.11 MB

     Dynamical RAM for          h,s,v(r/c):       0.04 MB

     Dynamical RAM for          <psi|beta>:       0.01 MB

     Dynamical RAM for                 psi:       2.47 MB

     Dynamical RAM for                hpsi:       2.47 MB

     Dynamical RAM for                spsi:       2.47 MB

     Dynamical RAM for      wfcinit/wfcrot:       2.81 MB

     Dynamical RAM for           addusdens:     490.34 MB

     Estimated static dynamical RAM per process >      65.18 MB

     Estimated max dynamical RAM per process >     555.53 MB

     Estimated total dynamical RAM >       5.43 GB

     The potential is recalculated from file :
     ./tmp/ptse2.save/charge-density


     negative rho (up, down):  6.988E-06 0.000E+00
     Starting wfcs are   17 randomized atomic wfcs

     Band Structure Calculation
     Davidson diagonalization with overlap

     Computing kpt #:     1  of    61
     total cpu time spent up to now is        9.9 secs

     Computing kpt #:     2  of    61
     total cpu time spent up to now is       13.1 secs

     Computing kpt #:     3  of    61
     total cpu time spent up to now is       16.4 secs

     Computing kpt #:     4  of    61
     total cpu time spent up to now is       19.8 secs

     Computing kpt #:     5  of    61
     total cpu time spent up to now is       23.0 secs

     Computing kpt #:     6  of    61
     total cpu time spent up to now is       26.3 secs

     Computing kpt #:     7  of    61
     total cpu time spent up to now is       29.6 secs

     Computing kpt #:     8  of    61
     total cpu time spent up to now is       33.0 secs

     Computing kpt #:     9  of    61
     total cpu time spent up to now is       36.5 secs

     Computing kpt #:    10  of    61
     total cpu time spent up to now is       39.9 secs

     Computing kpt #:    11  of    61
     total cpu time spent up to now is       43.3 secs

     Computing kpt #:    12  of    61
     total cpu time spent up to now is       46.7 secs

     Computing kpt #:    13  of    61
     total cpu time spent up to now is       50.0 secs

     Computing kpt #:    14  of    61
     total cpu time spent up to now is       53.1 secs

     Computing kpt #:    15  of    61
     total cpu time spent up to now is       55.9 secs

     Computing kpt #:    16  of    61
     total cpu time spent up to now is       58.5 secs

     Computing kpt #:    17  of    61
     total cpu time spent up to now is       61.2 secs

     Computing kpt #:    18  of    61
     total cpu time spent up to now is       63.8 secs

     Computing kpt #:    19  of    61
     total cpu time spent up to now is       66.5 secs

     Computing kpt #:    20  of    61
     total cpu time spent up to now is       69.0 secs

     Computing kpt #:    21  of    61
     total cpu time spent up to now is       71.5 secs

     Computing kpt #:    22  of    61
     total cpu time spent up to now is       74.2 secs

     Computing kpt #:    23  of    61
     total cpu time spent up to now is       76.9 secs

     Computing kpt #:    24  of    61
     total cpu time spent up to now is       79.7 secs

     Computing kpt #:    25  of    61
     total cpu time spent up to now is       82.5 secs

     Computing kpt #:    26  of    61
     total cpu time spent up to now is       85.4 secs

     Computing kpt #:    27  of    61
     total cpu time spent up to now is       88.3 secs

     Computing kpt #:    28  of    61
     total cpu time spent up to now is       91.1 secs

     Computing kpt #:    29  of    61
     total cpu time spent up to now is       94.1 secs

     Computing kpt #:    30  of    61
     total cpu time spent up to now is       96.9 secs

     Computing kpt #:    31  of    61
     total cpu time spent up to now is       99.7 secs

     Computing kpt #:    32  of    61
     total cpu time spent up to now is      102.4 secs

     Computing kpt #:    33  of    61
     total cpu time spent up to now is      104.8 secs

     Computing kpt #:    34  of    61
     total cpu time spent up to now is      107.5 secs

     Computing kpt #:    35  of    61
     total cpu time spent up to now is      109.3 secs

     Computing kpt #:    36  of    61
     total cpu time spent up to now is      111.2 secs

     Computing kpt #:    37  of    61
     total cpu time spent up to now is      113.1 secs

     Computing kpt #:    38  of    61
     total cpu time spent up to now is      115.1 secs

     Computing kpt #:    39  of    61
     total cpu time spent up to now is      116.7 secs

     Computing kpt #:    40  of    61
     total cpu time spent up to now is      118.4 secs

     Computing kpt #:    41  of    61
     total cpu time spent up to now is      120.8 secs

     Computing kpt #:    42  of    61
     total cpu time spent up to now is      123.7 secs

     Computing kpt #:    43  of    61
     total cpu time spent up to now is      126.4 secs

     Computing kpt #:    44  of    61
     total cpu time spent up to now is      129.2 secs

     Computing kpt #:    45  of    61
     total cpu time spent up to now is      132.1 secs

     Computing kpt #:    46  of    61
     total cpu time spent up to now is      134.8 secs

     Computing kpt #:    47  of    61
     total cpu time spent up to now is      137.7 secs

     Computing kpt #:    48  of    61
     total cpu time spent up to now is      140.5 secs

     Computing kpt #:    49  of    61
     total cpu time spent up to now is      143.2 secs

     Computing kpt #:    50  of    61
     total cpu time spent up to now is      146.6 secs

     Computing kpt #:    51  of    61
     total cpu time spent up to now is      150.4 secs

     Computing kpt #:    52  of    61
     total cpu time spent up to now is      153.8 secs

     Computing kpt #:    53  of    61
     total cpu time spent up to now is      156.8 secs

     Computing kpt #:    54  of    61
     total cpu time spent up to now is      159.7 secs

     Computing kpt #:    55  of    61
     total cpu time spent up to now is      162.5 secs

     Computing kpt #:    56  of    61
     total cpu time spent up to now is      165.7 secs

     Computing kpt #:    57  of    61
     total cpu time spent up to now is      168.9 secs

     Computing kpt #:    58  of    61
     total cpu time spent up to now is      172.3 secs

     Computing kpt #:    59  of    61
     total cpu time spent up to now is      175.6 secs

     Computing kpt #:    60  of    61
     total cpu time spent up to now is      178.7 secs

     Computing kpt #:    61  of    61
     total cpu time spent up to now is      181.8 secs

     ethr =  4.55E-10,  avg # of iterations = 43.7

     total cpu time spent up to now is      181.8 secs

     End of band structure calculation

          k = 0.0000 0.0000 0.0000 ( 54221 PWs)   bands (ev):

   -17.6026 -15.7480  -8.6720  -8.6720  -8.5933  -6.3577  -6.3577  -4.7009
    -4.0653  -3.4748  -3.4748  -0.4960  -0.4960   1.0085   1.8347

          k = 0.0250 0.0144 0.0000 ( 54213 PWs)   bands (ev):

   -17.5958 -15.7486  -8.6731  -8.6678  -8.5866  -6.3667  -6.3630  -4.7271
    -4.0522  -3.4798  -3.4742  -0.5523  -0.5075   1.0379   1.8709

          k = 0.0500 0.0289 0.0000 ( 54173 PWs)   bands (ev):

   -17.5755 -15.7505  -8.6761  -8.6550  -8.5665  -6.3944  -6.3786  -4.8025
    -4.0140  -3.4938  -3.4733  -0.7066  -0.5405   1.1231   1.9527

          k = 0.0750 0.0433 0.0000 ( 54155 PWs)   bands (ev):

   -17.5420 -15.7537  -8.6804  -8.6343  -8.5334  -6.4426  -6.4030  -4.9181
    -3.9535  -3.5151  -3.4743  -0.9274  -0.5907   1.2553   2.0382

          k = 0.1000 0.0577 0.0000 ( 54103 PWs)   bands (ev):

   -17.4955 -15.7581  -8.6848  -8.6060  -8.4876  -6.5148  -6.4339  -5.0598
    -3.8759  -3.5428  -3.4810  -1.1846  -0.6517   1.4217   2.1203

          k = 0.1250 0.0722 0.0000 ( 54101 PWs)   bands (ev):

   -17.4366 -15.7638  -8.6880  -8.5711  -8.4303  -6.6149  -6.4687  -5.2108
    -3.7892  -3.5768  -3.4978  -1.4533  -0.7164   1.6089   2.2066

          k = 0.1500 0.0866 0.0000 ( 54077 PWs)   bands (ev):

   -17.3661 -15.7706  -8.6887  -8.5308  -8.3630  -6.7458  -6.5041  -5.3548
    -3.7099  -3.6149  -3.5291  -1.7113  -0.7778   1.8055   2.2992

          k = 0.1750 0.1010 0.0000 ( 54071 PWs)   bands (ev):

   -17.2848 -15.7786  -8.6862  -8.4866  -8.2884  -6.9055  -6.5367  -5.4799
    -3.7050  -3.6118  -3.5791  -1.9332  -0.8299   2.0022   2.3862

          k = 0.2000 0.1155 0.0000 ( 54069 PWs)   bands (ev):

   -17.1938 -15.7876  -8.6807  -8.4401  -8.2117  -7.0843  -6.5629  -5.5809
    -3.7846  -3.6503  -3.5870  -2.0892  -0.8687   2.1827   2.3863

          k = 0.2250 0.1299 0.0000 ( 54013 PWs)   bands (ev):

   -17.0945 -15.7976  -8.6746  -8.3936  -8.1425  -7.2612  -6.5792  -5.6580
    -3.9082  -3.7436  -3.6063  -2.1548  -0.8924   2.1628   2.4285

          k = 0.2500 0.1443 0.0000 ( 54019 PWs)   bands (ev):

   -16.9885 -15.8085  -8.6746  -8.3491  -8.0994  -7.4013  -6.5821  -5.7142
    -4.0794  -3.8581  -3.6679  -2.1302  -0.9015   1.9729   2.6049

          k = 0.2750 0.1588 0.0000 ( 54025 PWs)   bands (ev):

   -16.8777 -15.8200  -8.6963  -8.3086  -8.1003  -7.4631  -6.5687  -5.7528
    -4.2924  -3.9916  -3.7557  -2.0393  -0.8977   1.7814   2.7809

          k = 0.3000 0.1732 0.0000 ( 54017 PWs)   bands (ev):

   -16.7642 -15.8322  -8.7626  -8.2739  -8.1217  -7.4410  -6.5368  -5.7761
    -4.5310  -4.1407  -3.8601  -1.9098  -0.8841   1.6087   2.9344

          k = 0.3250 0.1876 0.0000 ( 54043 PWs)   bands (ev):

   -16.6507 -15.8450  -8.8831  -8.2460  -8.1152  -7.3710  -6.4851  -5.7850
    -4.7780  -4.3021  -3.9785  -1.7624  -0.8639   1.4620   3.0353

          k = 0.3500 0.2021 0.0000 ( 54079 PWs)   bands (ev):

   -16.5400 -15.8584  -9.0385  -8.2250  -8.0675  -7.2866  -6.4137  -5.7788
    -5.0191  -4.4719  -4.1100  -1.6116  -0.8402   1.3447   3.0511

          k = 0.3750 0.2165 0.0000 ( 54038 PWs)   bands (ev):

   -16.4350 -15.8725  -9.2018  -8.2104  -7.9876  -7.2097  -6.3237  -5.7558
    -5.2420  -4.6467  -4.2531  -1.4681  -0.8157   1.2574   2.9891

          k = 0.4000 0.2309 0.0000 ( 54058 PWs)   bands (ev):

   -16.3391 -15.8874  -9.3539  -8.2010  -7.8851  -7.1574  -6.2176  -5.7142
    -5.4354  -4.8226  -4.4043  -1.3400  -0.7928   1.1980   2.8918

          k = 0.4250 0.2454 0.0000 ( 54076 PWs)   bands (ev):

   -16.2555 -15.9033  -9.4827  -8.1955  -7.7674  -7.1432  -6.0995  -5.6598
    -5.5828  -4.9951  -4.5575  -1.2340  -0.7732   1.1623   2.7928

          k = 0.4500 0.2598 0.0000 ( 54086 PWs)   bands (ev):

   -16.1881 -15.9196  -9.5800  -8.1926  -7.6413  -7.1734  -5.9767  -5.7101
    -5.5657  -5.1566  -4.7019  -1.1549  -0.7583   1.1442   2.7114

          k = 0.4750 0.2742 0.0000 ( 54086 PWs)   bands (ev):

   -16.1419 -15.9339  -9.6404  -8.1913  -7.5182  -7.2406  -5.8667  -5.7720
    -5.4944  -5.2898  -4.8163  -1.1062  -0.7490   1.1370   2.6586

          k = 0.5000 0.2887 0.0000 ( 54066 PWs)   bands (ev):

   -16.1249 -15.9401  -9.6610  -8.1910  -7.4443  -7.2965  -5.8154  -5.7925
    -5.4613  -5.3488  -4.8633  -1.0897  -0.7458   1.1352   2.6403

          k = 0.4916 0.3031 0.0000 ( 54060 PWs)   bands (ev):

   -16.1238 -15.9401  -9.6581  -8.1935  -7.4440  -7.2931  -5.8155  -5.7986
    -5.5521  -5.2601  -4.8605  -1.0911  -0.7599   1.1449   2.6591

          k = 0.4833 0.3175 0.0000 ( 54058 PWs)   bands (ev):

   -16.1206 -15.9401  -9.6496  -8.2010  -7.4431  -7.2834  -5.8270  -5.8157
    -5.6698  -5.1379  -4.8525  -1.0953  -0.8008   1.1736   2.7143

          k = 0.4749 0.3319 0.0000 ( 54054 PWs)   bands (ev):

   -16.1153 -15.9400  -9.6355  -8.2128  -7.4420  -7.2679  -5.9147  -5.8157
    -5.7390  -5.0203  -4.8397  -1.1023  -0.8650   1.2208   2.8018

          k = 0.4666 0.3463 0.0000 ( 54074 PWs)   bands (ev):

   -16.1080 -15.9400  -9.6157  -8.2282  -7.4411  -7.2474  -6.0511  -5.8152
    -5.7655  -4.9108  -4.8226  -1.1126  -0.9477   1.2857   2.9159

          k = 0.4582 0.3607 0.0000 ( 54076 PWs)   bands (ev):

   -16.0989 -15.9399  -9.5905  -8.2463  -7.4414  -7.2232  -6.2008  -5.8140
    -5.7818  -4.8107  -4.8020  -1.1261  -1.0432   1.3668   3.0499

          k = 0.4499 0.3751 0.0000 ( 54060 PWs)   bands (ev):

   -16.0880 -15.9398  -9.5599  -8.2661  -7.4443  -7.1963  -6.3521  -5.8115
    -5.7967  -4.7790  -4.7204  -1.1463  -1.1433   1.4625   3.1969

          k = 0.4415 0.3895 0.0000 ( 54040 PWs)   bands (ev):

   -16.0756 -15.9396  -9.5239  -8.2868  -7.4519  -7.1678  -6.4991  -5.8121
    -5.8074  -4.7545  -4.6404  -1.2519  -1.1642   1.5704   3.3502

          k = 0.4332 0.4039 0.0000 ( 54058 PWs)   bands (ev):

   -16.0620 -15.9394  -9.4829  -8.3076  -7.4679  -7.1387  -6.6366  -5.8286
    -5.8017  -4.7297  -4.5705  -1.3558  -1.1889   1.6880   3.5038

          k = 0.4248 0.4183 0.0000 ( 54038 PWs)   bands (ev):

   -16.0473 -15.9391  -9.4370  -8.3278  -7.4971  -7.1098  -6.7581  -5.8464
    -5.7944  -4.7053  -4.5108  -1.4542  -1.2175   1.8120   3.6531

          k = 0.4165 0.4327 0.0000 ( 54042 PWs)   bands (ev):

   -16.0319 -15.9387  -9.3864  -8.3469  -7.5455  -7.0818  -6.8567  -5.8654
    -5.7855  -4.6822  -4.4610  -1.5441  -1.2499   1.9387   3.7952

          k = 0.4081 0.4471 0.0000 ( 54026 PWs)   bands (ev):

   -16.0162 -15.9383  -9.3316  -8.3645  -7.6166  -7.0553  -6.9276  -5.8854
    -5.7756  -4.6609  -4.4209  -1.6227  -1.2859   2.0642   3.9293

          k = 0.3998 0.4615 0.0000 ( 54032 PWs)   bands (ev):

   -16.0004 -15.9377  -9.2728  -8.3802  -7.7087  -7.0308  -6.9715  -5.9061
    -5.7653  -4.6416  -4.3903  -1.6881  -1.3252   2.1840   4.0558

          k = 0.3914 0.4759 0.0000 ( 54062 PWs)   bands (ev):

   -15.9851 -15.9370  -9.2106  -8.3937  -7.8155  -7.0087  -6.9939  -5.9271
    -5.7553  -4.6240  -4.3690  -1.7389  -1.3674   2.2938   4.1761

          k = 0.3831 0.4903 0.0000 ( 54044 PWs)   bands (ev):

   -15.9705 -15.9362  -9.1458  -8.4050  -7.9295  -7.0014  -6.9891  -5.9479
    -5.7465  -4.6073  -4.3567  -1.7743  -1.4120   2.3896   4.2912

          k = 0.3747 0.5047 0.0000 ( 54044 PWs)   bands (ev):

   -15.9573 -15.9352  -9.0795  -8.4138  -8.0441  -6.9992  -6.9726  -5.9680
    -5.7396  -4.5905  -4.3531  -1.7943  -1.4584   2.4684   4.4013

          k = 0.3664 0.5192 0.0000 ( 54026 PWs)   bands (ev):

   -15.9458 -15.9340  -9.0131  -8.4202  -8.1540  -6.9913  -6.9594  -5.9866
    -5.7352  -4.5720  -4.3581  -1.7993  -1.5061   2.5289   4.4452

          k = 0.3580 0.5336 0.0000 ( 54012 PWs)   bands (ev):

   -15.9366 -15.9326  -8.9493  -8.4242  -8.2543  -6.9804  -6.9499  -6.0029
    -5.7334  -4.5506  -4.3714  -1.7905  -1.5543   2.5713   4.4797

          k = 0.3497 0.5480 0.0000 ( 54004 PWs)   bands (ev):

   -15.9310 -15.9299  -8.8929  -8.4258  -8.3387  -6.9686  -6.9445  -6.0158
    -5.7338  -4.5250  -4.3925  -1.7692  -1.6022   2.5978   4.5311

          k = 0.3413 0.5624 0.0000 ( 54050 PWs)   bands (ev):

   -15.9291 -15.9266  -8.8518  -8.4253  -8.3984  -6.9576  -6.9439  -6.0245
    -5.7353  -4.4944  -4.4211  -1.7373  -1.6493   2.6113   4.5957

          k = 0.3330 0.5768 0.0000 ( 54074 PWs)   bands (ev):

   -15.9270 -15.9268  -8.8363  -8.4228  -8.4225  -6.9488  -6.9482  -6.0277
    -5.7362  -4.4590  -4.4559  -1.6975  -1.6939   2.6152   4.6686

          k = 0.3163 0.5479 0.0000 ( 54010 PWs)   bands (ev):

   -15.9405 -15.9216  -8.8815  -8.4123  -8.3642  -6.9753  -6.9416  -6.0131
    -5.7283  -4.5484  -4.3675  -1.7810  -1.5943   2.6054   4.4186

          k = 0.2997 0.5191 0.0000 ( 54002 PWs)   bands (ev):

   -15.9728 -15.9152  -8.9487  -8.3982  -8.2469  -7.0231  -6.9529  -5.9684
    -5.6957  -4.6537  -4.2620  -1.8519  -1.4857   2.5877   4.1169

          k = 0.2830 0.4903 0.0000 ( 54018 PWs)   bands (ev):

   -16.0252 -15.9075  -8.9882  -8.3841  -8.1274  -7.0854  -6.9806  -5.8971
    -5.6296  -4.7613  -4.1456  -1.9075  -1.3850   2.5726   3.8354

          k = 0.2664 0.4614 0.0000 ( 54026 PWs)   bands (ev):

   -16.0978 -15.8985  -8.9868  -8.3749  -8.0283  -7.1501  -7.0195  -5.8128
    -5.5276  -4.8503  -4.0248  -1.9463  -1.3080   2.5655   3.5943

          k = 0.2497 0.4326 0.0000 ( 54052 PWs)   bands (ev):

   -16.1892 -15.8882  -8.9434  -8.3759  -7.9608  -7.2035  -7.0636  -5.7409
    -5.3917  -4.8900  -3.9055  -1.9671  -1.2679   2.5690   3.4010

          k = 0.2331 0.4037 0.0000 ( 54084 PWs)   bands (ev):

   -16.2967 -15.8769  -8.8622  -8.3911  -7.9289  -7.2344  -7.1094  -5.7081
    -5.2254  -4.8502  -3.7927  -1.9686  -1.2732   2.5845   3.2548

          k = 0.2164 0.3749 0.0000 ( 54090 PWs)   bands (ev):

   -16.4169 -15.8646  -8.7519  -8.4212  -7.9293  -7.2367  -7.1557  -5.7149
    -5.0329  -4.7304  -3.6910  -1.9487  -1.3257   2.6129   3.1466

          k = 0.1998 0.3461 0.0000 ( 54074 PWs)   bands (ev):

   -16.5458 -15.8517  -8.6267  -8.4629  -7.9532  -7.2100  -7.1992  -5.7367
    -4.8188  -4.5601  -3.6047  -1.9044  -1.4187   2.6551   3.0600

          k = 0.1831 0.3172 0.0000 ( 54086 PWs)   bands (ev):

   -16.6793 -15.8384  -8.5104  -8.5086  -7.9892  -7.2286  -7.1582  -5.7518
    -4.5891  -4.3706  -3.5374  -1.8324  -1.5388   2.7114   2.9759

          k = 0.1665 0.2884 0.0000 ( 54090 PWs)   bands (ev):

   -16.8134 -15.8251  -8.5577  -8.4259  -8.0292  -7.2213  -7.0870  -5.7494
    -4.3519  -4.1847  -3.4930  -1.7298  -1.6664   2.7794   2.8806

          k = 0.1498 0.2595 0.0000 ( 54086 PWs)   bands (ev):

   -16.9447 -15.8121  -8.6002  -8.3971  -8.0755  -7.1549  -7.0017  -5.7248
    -4.1186  -4.0176  -3.4755  -1.7768  -1.5968   2.7196   2.7693

          k = 0.1332 0.2307 0.0000 ( 54099 PWs)   bands (ev):

   -17.0699 -15.7997  -8.6347  -8.4129  -8.1374  -7.0306  -6.9077  -5.6744
    -3.9049  -3.8771  -3.4893  -1.8412  -1.4376   2.4837   2.6461

          k = 0.1165 0.2019 0.0000 ( 54063 PWs)   bands (ev):

   -17.1862 -15.7882  -8.6599  -8.4519  -8.2149  -6.8756  -6.8093  -5.5934
    -3.7654  -3.7292  -3.5370  -1.8306  -1.2616   2.2455   2.5186

          k = 0.0999 0.1730 0.0000 ( 54047 PWs)   bands (ev):

   -17.2914 -15.7779  -8.6757  -8.4989  -8.2991  -6.7222  -6.7110  -5.4771
    -3.6795  -3.6168  -3.6029  -1.7284  -1.0816   2.0074   2.3941

          k = 0.0832 0.1442 0.0000 ( 54057 PWs)   bands (ev):

   -17.3834 -15.7689  -8.6832  -8.5457  -8.3809  -6.6170  -6.5928  -5.3267
    -3.7154  -3.6147  -3.5286  -1.5409  -0.9112   1.7703   2.2779

          k = 0.0666 0.1154 0.0000 ( 54077 PWs)   bands (ev):

   -17.4607 -15.7614  -8.6844  -8.5880  -8.4539  -6.5318  -6.4960  -5.1542
    -3.8213  -3.5655  -3.4909  -1.2939  -0.7624   1.5402   2.1727

          k = 0.0499 0.0865 0.0000 ( 54125 PWs)   bands (ev):

   -17.5221 -15.7556  -8.6815  -8.6232  -8.5138  -6.4595  -6.4297  -4.9815
    -3.9193  -3.5280  -3.4762  -1.0216  -0.6438   1.3303   2.0764

          k = 0.0333 0.0577 0.0000 ( 54153 PWs)   bands (ev):

   -17.5666 -15.7513  -8.6771  -8.6498  -8.5577  -6.4042  -6.3878  -4.8344
    -3.9976  -3.4998  -3.4731  -0.7637  -0.5601   1.1596   1.9798

          k = 0.0166 0.0288 0.0000 ( 54215 PWs)   bands (ev):

   -17.5936 -15.7488  -8.6734  -8.6664  -8.5844  -6.3695  -6.3649  -4.7356
    -4.0479  -3.4814  -3.4741  -0.5699  -0.5116   1.0475   1.8817

          k = 0.0000 0.0000 0.0000 ( 54221 PWs)   bands (ev):

   -17.6026 -15.7480  -8.6720  -8.6720  -8.5933  -6.3577  -6.3577  -4.7009
    -4.0653  -3.4748  -3.4748  -0.4960  -0.4960   1.0085   1.8347

     Writing all to output data dir ./tmp/ptse2.save/

     init_run     :      5.86s CPU      6.68s WALL (       1 calls)
     electrons    :    174.38s CPU    174.99s WALL (       1 calls)

     Called by init_run:
     wfcinit      :      0.00s CPU      0.00s WALL (       1 calls)
     wfcinit:atom :      0.12s CPU      0.12s WALL (      61 calls)
     wfcinit:wfcr :      6.89s CPU      6.92s WALL (      61 calls)
     potinit      :      0.34s CPU      0.38s WALL (       1 calls)
     hinit0       :      3.69s CPU      3.73s WALL (       1 calls)

     Called by electrons:
     c_bands      :    174.38s CPU    174.99s WALL (       1 calls)
     v_of_rho     :      0.06s CPU      0.08s WALL (       1 calls)
     v_h          :      0.04s CPU      0.05s WALL (       1 calls)
     v_xc         :      0.02s CPU      0.03s WALL (       1 calls)
     newd         :      0.90s CPU      1.58s WALL (       1 calls)

     Called by c_bands:
     init_us_2    :      0.11s CPU      0.15s WALL (      61 calls)
     init_us_2:cp :      0.11s CPU      0.15s WALL (      61 calls)
     cegterg      :    166.70s CPU    167.16s WALL (     160 calls)

     Called by sum_band:

     Called by *egterg:
     cdiaghg      :      0.78s CPU      0.78s WALL (    2727 calls)
     cegterg:over :      5.60s CPU      5.62s WALL (    2666 calls)
     cegterg:upda :      3.78s CPU      3.80s WALL (    2666 calls)
     cegterg:last :      7.20s CPU      7.22s WALL (    1429 calls)
     h_psi        :    150.14s CPU    150.58s WALL (    2887 calls)
     s_psi        :      2.44s CPU      2.44s WALL (    2887 calls)
     g_psi        :      0.50s CPU      0.50s WALL (    2666 calls)

     Called by h_psi:
     h_psi:calbec :      7.71s CPU      7.73s WALL (    2887 calls)
     vloc_psi     :    137.83s CPU    138.25s WALL (    2887 calls)
     add_vuspsi   :      3.69s CPU      3.70s WALL (    2887 calls)

     General routines
     calbec       :      7.69s CPU      7.71s WALL (    2887 calls)
     fft          :      0.44s CPU      0.45s WALL (       6 calls)
     ffts         :      0.17s CPU      0.17s WALL (       1 calls)
     fftw         :     54.13s CPU     54.22s WALL (   46318 calls)
     interpolate  :      0.21s CPU      0.21s WALL (       1 calls)
     davcio       :      0.10s CPU      0.19s WALL (     122 calls)

     Parallel routines

     PWSCF        :   3m 1.73s CPU   3m 4.44s WALL


   This run was terminated on:  13:43:54  19Jun2025            

=------------------------------------------------------------------------------=
   JOB DONE.
=------------------------------------------------------------------------------=
