
     Program BANDS v.7.2 starts on 19Jun2025 at 13:43:54 

     This program is part of the open-source Quantum ESPRESSO suite
     for quantum simulation of materials; please cite
         "P. Giannozzi et al., J. Phys.:Condens. Matter 21 395502 (2009);
         "P. Giannozzi et al., J. Phys.:Condens. Matter 29 465901 (2017);
         "P. Giannozzi et al., J. Chem. Phys. 152 154105 (2020);
          URL http://www.quantum-espresso.org", 
     in publications or presentations arising from this work. More details at
     http://www.quantum-espresso.org/quote

     Parallel version (MPI & OpenMP), running on      10 processor cores
     Number of MPI processes:                10
     Threads/MPI process:                     1

     MPI processes distributed on     1 nodes
     R & G space division:  proc/nbgrp/npool/nimage =      10
     74085 MiB available memory on the printing compute node when the environment starts


     Reading xml data from directory:

     ./tmp/ptse2.save/

     IMPORTANT: XC functional enforced from input :
     Exchange-correlation= PZ
                           (   1   1   0   0   0   0   0)
     Any further DFT definition will be discarded
     Please, verify this is what you really want


     Parallelization info
     --------------------
     sticks:   dense  smooth     PW     G-vecs:    dense   smooth      PW
     Min         409     163     45               170929    43257    6321
     Max         410     164     46               170954    43296    6342
     Sum        4093    1639    451              1709389   432857   63275

     Using Slab Decomposition


     negative rho (up, down):  6.988E-06 0.000E+00
     Reading collected, re-writing distributed wavefunctions
     high-symmetry point:  0.0000 0.0000 0.0000   x coordinate   0.0000
     high-symmetry point:  0.5000 0.2887 0.0000   x coordinate   0.5774
     high-symmetry point:  0.3330 0.5768 0.0000   x coordinate   0.9104
     high-symmetry point:  0.0000 0.0000 0.0000   x coordinate   1.5764

     Plottable bands (eV) written to file ptse2.bands1.dat.gnu
     Bands written to file ptse2.bands1.dat

 **************************************************************************

                    xk=(   0.00000,   0.00000,   0.00000  )

     point group C_3v (3m)  
     there are  3 classes
     the character table:

       E     2C3   3s_v 
A_1    1.00  1.00  1.00
A_2    1.00  1.00 -1.00
E      2.00 -1.00  0.00

     the symmetry operations in each class and the name of the first element:

     E        1
                                                                 
     2C3      2    3
                                                                 
     3s_v     4    5    6
                                                                 

     Band symmetry, C_3v (3m)   point group:

     e(  1 -  1) =    -17.60259  eV     1   --> A_1  L_1       
     e(  2 -  2) =    -15.74795  eV     1   --> A_1  L_1       
     e(  3 -  4) =     -8.67203  eV     2   --> E    L_3       
     e(  5 -  5) =     -8.59330  eV     1   --> A_1  L_1       
     e(  6 -  7) =     -6.35766  eV     2   --> E    L_3       
     e(  8 -  8) =     -4.70089  eV     1   --> A_1  L_1       
     e(  9 -  9) =     -4.06528  eV     1   --> A_1  L_1       
     e( 10 - 11) =     -3.47484  eV     2   --> E    L_3       
     e( 12 - 13) =     -0.49599  eV     2   --> E    L_3       
     e( 14 - 14) =      1.00848  eV     1   --> A_1  L_1       
     e( 15 - 15) =      1.83473  eV     1   --> A_1  L_1       

 **************************************************************************

 **************************************************************************

                    xk=(   0.02500,   0.01443,   0.00000  )

     point group C_s (m)    
     there are  2 classes
     the character table:

       E     s    
A'     1.00  1.00
A''    1.00 -1.00

     the symmetry operations in each class and the name of the first element:

     E        1
                                                                 
     s        2
                                                                 

     Band symmetry, C_s (m)     point group:

     e(  1 -  1) =    -17.59581  eV     1   --> A'             
     e(  2 -  2) =    -15.74859  eV     1   --> A'             
     e(  3 -  3) =     -8.67310  eV     1   --> A'             
     e(  4 -  4) =     -8.66775  eV     1   --> A''            
     e(  5 -  5) =     -8.58660  eV     1   --> A'             
     e(  6 -  6) =     -6.36668  eV     1   --> A'             
     e(  7 -  7) =     -6.36301  eV     1   --> A''            
     e(  8 -  8) =     -4.72709  eV     1   --> A'             
     e(  9 -  9) =     -4.05222  eV     1   --> A'             
     e( 10 - 10) =     -3.47977  eV     1   --> A'             
     e( 11 - 11) =     -3.47424  eV     1   --> A''            
     e( 12 - 12) =     -0.55229  eV     1   --> A'             
     e( 13 - 13) =     -0.50750  eV     1   --> A''            
     e( 14 - 14) =      1.03791  eV     1   --> A'             
     e( 15 - 15) =      1.87089  eV     1   --> A'             

 **************************************************************************

 **************************************************************************

                    xk=(   0.05000,   0.02887,   0.00000  )

     Band symmetry, C_s (m)     point group:

     e(  1 -  1) =    -17.57552  eV     1   --> A'             
     e(  2 -  2) =    -15.75050  eV     1   --> A'             
     e(  3 -  3) =     -8.67611  eV     1   --> A'             
     e(  4 -  4) =     -8.65504  eV     1   --> A''            
     e(  5 -  5) =     -8.56654  eV     1   --> A'             
     e(  6 -  6) =     -6.39435  eV     1   --> A'             
     e(  7 -  7) =     -6.37859  eV     1   --> A''            
     e(  8 -  8) =     -4.80255  eV     1   --> A'             
     e(  9 -  9) =     -4.01401  eV     1   --> A'             
     e( 10 - 10) =     -3.49376  eV     1   --> A'             
     e( 11 - 11) =     -3.47326  eV     1   --> A''            
     e( 12 - 12) =     -0.70656  eV     1   --> A'             
     e( 13 - 13) =     -0.54052  eV     1   --> A''            
     e( 14 - 14) =      1.12315  eV     1   --> A'             
     e( 15 - 15) =      1.95269  eV     1   --> A'             

 **************************************************************************

 **************************************************************************

                    xk=(   0.07500,   0.04330,   0.00000  )

     Band symmetry, C_s (m)     point group:

     e(  1 -  1) =    -17.54196  eV     1   --> A'             
     e(  2 -  2) =    -15.75368  eV     1   --> A'             
     e(  3 -  3) =     -8.68038  eV     1   --> A'             
     e(  4 -  4) =     -8.63426  eV     1   --> A''            
     e(  5 -  5) =     -8.53336  eV     1   --> A'             
     e(  6 -  6) =     -6.44264  eV     1   --> A'             
     e(  7 -  7) =     -6.40296  eV     1   --> A''            
     e(  8 -  8) =     -4.91814  eV     1   --> A'             
     e(  9 -  9) =     -3.95353  eV     1   --> A'             
     e( 10 - 10) =     -3.51514  eV     1   --> A'             
     e( 11 - 11) =     -3.47430  eV     1   --> A''            
     e( 12 - 12) =     -0.92744  eV     1   --> A'             
     e( 13 - 13) =     -0.59070  eV     1   --> A''            
     e( 14 - 14) =      1.25532  eV     1   --> A'             
     e( 15 - 15) =      2.03825  eV     1   --> A'             

 **************************************************************************

 **************************************************************************

                    xk=(   0.10000,   0.05774,   0.00000  )

     Band symmetry, C_s (m)     point group:

     e(  1 -  1) =    -17.49548  eV     1   --> A'             
     e(  2 -  2) =    -15.75812  eV     1   --> A'             
     e(  3 -  3) =     -8.68478  eV     1   --> A'             
     e(  4 -  4) =     -8.60599  eV     1   --> A''            
     e(  5 -  5) =     -8.48762  eV     1   --> A'             
     e(  6 -  6) =     -6.51481  eV     1   --> A'             
     e(  7 -  7) =     -6.43393  eV     1   --> A''            
     e(  8 -  8) =     -5.05982  eV     1   --> A'             
     e(  9 -  9) =     -3.87586  eV     1   --> A'             
     e( 10 - 10) =     -3.54281  eV     1   --> A'             
     e( 11 - 11) =     -3.48099  eV     1   --> A''            
     e( 12 - 12) =     -1.18458  eV     1   --> A'             
     e( 13 - 13) =     -0.65174  eV     1   --> A''            
     e( 14 - 14) =      1.42170  eV     1   --> A'             
     e( 15 - 15) =      2.12034  eV     1   --> A'             

 **************************************************************************

 **************************************************************************

                    xk=(   0.12500,   0.07217,   0.00000  )

     Band symmetry, C_s (m)     point group:

     e(  1 -  1) =    -17.43663  eV     1   --> A'             
     e(  2 -  2) =    -15.76378  eV     1   --> A'             
     e(  3 -  3) =     -8.68798  eV     1   --> A'             
     e(  4 -  4) =     -8.57113  eV     1   --> A''            
     e(  5 -  5) =     -8.43029  eV     1   --> A'             
     e(  6 -  6) =     -6.61491  eV     1   --> A'             
     e(  7 -  7) =     -6.46872  eV     1   --> A''            
     e(  8 -  8) =     -5.21078  eV     1   --> A'             
     e(  9 -  9) =     -3.78921  eV     1   --> A'             
     e( 10 - 10) =     -3.57680  eV     1   --> A'             
     e( 11 - 11) =     -3.49775  eV     1   --> A''            
     e( 12 - 12) =     -1.45332  eV     1   --> A'             
     e( 13 - 13) =     -0.71645  eV     1   --> A''            
     e( 14 - 14) =      1.60891  eV     1   --> A'             
     e( 15 - 15) =      2.20660  eV     1   --> A'             

 **************************************************************************

 **************************************************************************

                    xk=(   0.15000,   0.08660,   0.00000  )

     Band symmetry, C_s (m)     point group:

     e(  1 -  1) =    -17.36610  eV     1   --> A'             
     e(  2 -  2) =    -15.77063  eV     1   --> A'             
     e(  3 -  3) =     -8.68874  eV     1   --> A'             
     e(  4 -  4) =     -8.53082  eV     1   --> A''            
     e(  5 -  5) =     -8.36299  eV     1   --> A'             
     e(  6 -  6) =     -6.74576  eV     1   --> A'             
     e(  7 -  7) =     -6.50413  eV     1   --> A''            
     e(  8 -  8) =     -5.35479  eV     1   --> A'             
     e(  9 -  9) =     -3.70987  eV     1   --> A'             
     e( 10 - 10) =     -3.61490  eV     1   --> A'             
     e( 11 - 11) =     -3.52915  eV     1   --> A''            
     e( 12 - 12) =     -1.71128  eV     1   --> A'             
     e( 13 - 13) =     -0.77779  eV     1   --> A''            
     e( 14 - 14) =      1.80546  eV     1   --> A'             
     e( 15 - 15) =      2.29922  eV     1   --> A'             

 **************************************************************************

 **************************************************************************

                    xk=(   0.17500,   0.10104,   0.00000  )

     Band symmetry, C_s (m)     point group:

     e(  1 -  1) =    -17.28479  eV     1   --> A'             
     e(  2 -  2) =    -15.77861  eV     1   --> A'             
     e(  3 -  3) =     -8.68624  eV     1   --> A'             
     e(  4 -  4) =     -8.48656  eV     1   --> A''            
     e(  5 -  5) =     -8.28844  eV     1   --> A'             
     e(  6 -  6) =     -6.90554  eV     1   --> A'             
     e(  7 -  7) =     -6.53672  eV     1   --> A''            
     e(  8 -  8) =     -5.47995  eV     1   --> A'             
     e(  9 -  9) =     -3.70504  eV     1   --> A'             
     e( 10 - 10) =     -3.61179  eV     1   --> A'             
     e( 11 - 11) =     -3.57913  eV     1   --> A''            
     e( 12 - 12) =     -1.93321  eV     1   --> A'             
     e( 13 - 13) =     -0.82987  eV     1   --> A''            
     e( 14 - 14) =      2.00217  eV     1   --> A'             
     e( 15 - 15) =      2.38622  eV     1   --> A'             

 **************************************************************************

 **************************************************************************

                    xk=(   0.20000,   0.11547,   0.00000  )

     Band symmetry, C_s (m)     point group:

     e(  1 -  1) =    -17.19381  eV     1   --> A'             
     e(  2 -  2) =    -15.78764  eV     1   --> A'             
     e(  3 -  3) =     -8.68072  eV     1   --> A'             
     e(  4 -  4) =     -8.44014  eV     1   --> A''            
     e(  5 -  5) =     -8.21165  eV     1   --> A'             
     e(  6 -  6) =     -7.08430  eV     1   --> A'             
     e(  7 -  7) =     -6.56291  eV     1   --> A''            
     e(  8 -  8) =     -5.58090  eV     1   --> A'             
     e(  9 -  9) =     -3.78458  eV     1   --> A'             
     e( 10 - 10) =     -3.65032  eV     1   --> A''            
     e( 11 - 11) =     -3.58700  eV     1   --> A'             
     e( 12 - 12) =     -2.08919  eV     1   --> A'             
     e( 13 - 13) =     -0.86869  eV     1   --> A''            
     e( 14 - 14) =      2.18273  eV     1   --> A'             
     e( 15 - 15) =      2.38626  eV     1   --> A'             

 **************************************************************************

 **************************************************************************

                    xk=(   0.22500,   0.12990,   0.00000  )

     Band symmetry, C_s (m)     point group:

     e(  1 -  1) =    -17.09451  eV     1   --> A'             
     e(  2 -  2) =    -15.79762  eV     1   --> A'             
     e(  3 -  3) =     -8.67456  eV     1   --> A'             
     e(  4 -  4) =     -8.39358  eV     1   --> A''            
     e(  5 -  5) =     -8.14249  eV     1   --> A'             
     e(  6 -  6) =     -7.26122  eV     1   --> A'             
     e(  7 -  7) =     -6.57916  eV     1   --> A''            
     e(  8 -  8) =     -5.65795  eV     1   --> A'             
     e(  9 -  9) =     -3.90819  eV     1   --> A'             
     e( 10 - 10) =     -3.74363  eV     1   --> A''            
     e( 11 - 11) =     -3.60634  eV     1   --> A'             
     e( 12 - 12) =     -2.15479  eV     1   --> A'             
     e( 13 - 13) =     -0.89245  eV     1   --> A''            
     e( 14 - 14) =      2.16275  eV     1   --> A'             
     e( 15 - 15) =      2.42846  eV     1   --> A'             

 **************************************************************************

 **************************************************************************

                    xk=(   0.25000,   0.14434,   0.00000  )

     Band symmetry, C_s (m)     point group:

     e(  1 -  1) =    -16.98849  eV     1   --> A'             
     e(  2 -  2) =    -15.80846  eV     1   --> A'             
     e(  3 -  3) =     -8.67464  eV     1   --> A'             
     e(  4 -  4) =     -8.34905  eV     1   --> A''            
     e(  5 -  5) =     -8.09944  eV     1   --> A'             
     e(  6 -  6) =     -7.40130  eV     1   --> A'             
     e(  7 -  7) =     -6.58207  eV     1   --> A''            
     e(  8 -  8) =     -5.71415  eV     1   --> A'             
     e(  9 -  9) =     -4.07940  eV     1   --> A'             
     e( 10 - 10) =     -3.85815  eV     1   --> A''            
     e( 11 - 11) =     -3.66792  eV     1   --> A'             
     e( 12 - 12) =     -2.13018  eV     1   --> A'             
     e( 13 - 13) =     -0.90148  eV     1   --> A''            
     e( 14 - 14) =      1.97294  eV     1   --> A'             
     e( 15 - 15) =      2.60487  eV     1   --> A'             

 **************************************************************************

 **************************************************************************

                    xk=(   0.27500,   0.15877,   0.00000  )

     Band symmetry, C_s (m)     point group:

     e(  1 -  1) =    -16.87766  eV     1   --> A'             
     e(  2 -  2) =    -15.82002  eV     1   --> A'             
     e(  3 -  3) =     -8.69629  eV     1   --> A'             
     e(  4 -  4) =     -8.30862  eV     1   --> A''            
     e(  5 -  5) =     -8.10029  eV     1   --> A'             
     e(  6 -  6) =     -7.46305  eV     1   --> A'             
     e(  7 -  7) =     -6.56870  eV     1   --> A''            
     e(  8 -  8) =     -5.75278  eV     1   --> A'             
     e(  9 -  9) =     -4.29243  eV     1   --> A'             
     e( 10 - 10) =     -3.99158  eV     1   --> A''            
     e( 11 - 11) =     -3.75567  eV     1   --> A'             
     e( 12 - 12) =     -2.03931  eV     1   --> A'             
     e( 13 - 13) =     -0.89773  eV     1   --> A''            
     e( 14 - 14) =      1.78144  eV     1   --> A'             
     e( 15 - 15) =      2.78087  eV     1   --> A'             

 **************************************************************************

 **************************************************************************

                    xk=(   0.30000,   0.17321,   0.00000  )

     Band symmetry, C_s (m)     point group:

     e(  1 -  1) =    -16.76423  eV     1   --> A'             
     e(  2 -  2) =    -15.83223  eV     1   --> A'             
     e(  3 -  3) =     -8.76257  eV     1   --> A'             
     e(  4 -  4) =     -8.27395  eV     1   --> A''            
     e(  5 -  5) =     -8.12167  eV     1   --> A'             
     e(  6 -  6) =     -7.44097  eV     1   --> A'             
     e(  7 -  7) =     -6.53679  eV     1   --> A''            
     e(  8 -  8) =     -5.77611  eV     1   --> A'             
     e(  9 -  9) =     -4.53104  eV     1   --> A'             
     e( 10 - 10) =     -4.14074  eV     1   --> A''            
     e( 11 - 11) =     -3.86006  eV     1   --> A'             
     e( 12 - 12) =     -1.90979  eV     1   --> A'             
     e( 13 - 13) =     -0.88413  eV     1   --> A''            
     e( 14 - 14) =      1.60870  eV     1   --> A'             
     e( 15 - 15) =      2.93436  eV     1   --> A'             

 **************************************************************************

 **************************************************************************

                    xk=(   0.32500,   0.18764,   0.00000  )

     Band symmetry, C_s (m)     point group:

     e(  1 -  1) =    -16.65072  eV     1   --> A'             
     e(  2 -  2) =    -15.84502  eV     1   --> A'             
     e(  3 -  3) =     -8.88310  eV     1   --> A'             
     e(  4 -  4) =     -8.24603  eV     1   --> A''            
     e(  5 -  5) =     -8.11519  eV     1   --> A'             
     e(  6 -  6) =     -7.37102  eV     1   --> A'             
     e(  7 -  7) =     -6.48513  eV     1   --> A''            
     e(  8 -  8) =     -5.78499  eV     1   --> A'             
     e(  9 -  9) =     -4.77801  eV     1   --> A'             
     e( 10 - 10) =     -4.30207  eV     1   --> A''            
     e( 11 - 11) =     -3.97846  eV     1   --> A'             
     e( 12 - 12) =     -1.76240  eV     1   --> A'             
     e( 13 - 13) =     -0.86390  eV     1   --> A''            
     e( 14 - 14) =      1.46203  eV     1   --> A'             
     e( 15 - 15) =      3.03532  eV     1   --> A'             

 **************************************************************************

 **************************************************************************

                    xk=(   0.35000,   0.20207,   0.00000  )

     Band symmetry, C_s (m)     point group:

     e(  1 -  1) =    -16.53995  eV     1   --> A'             
     e(  2 -  2) =    -15.85840  eV     1   --> A'             
     e(  3 -  3) =     -9.03847  eV     1   --> A'             
     e(  4 -  4) =     -8.22505  eV     1   --> A''            
     e(  5 -  5) =     -8.06747  eV     1   --> A'             
     e(  6 -  6) =     -7.28658  eV     1   --> A'             
     e(  7 -  7) =     -6.41370  eV     1   --> A''            
     e(  8 -  8) =     -5.77883  eV     1   --> A'             
     e(  9 -  9) =     -5.01905  eV     1   --> A'             
     e( 10 - 10) =     -4.47194  eV     1   --> A''            
     e( 11 - 11) =     -4.11002  eV     1   --> A'             
     e( 12 - 12) =     -1.61164  eV     1   --> A'             
     e( 13 - 13) =     -0.84017  eV     1   --> A''            
     e( 14 - 14) =      1.34473  eV     1   --> A'             
     e( 15 - 15) =      3.05110  eV     1   --> A'             

 **************************************************************************

 **************************************************************************

                    xk=(   0.37500,   0.21651,   0.00000  )

     Band symmetry, C_s (m)     point group:

     e(  1 -  1) =    -16.43499  eV     1   --> A'             
     e(  2 -  2) =    -15.87247  eV     1   --> A'             
     e(  3 -  3) =     -9.20180  eV     1   --> A'             
     e(  4 -  4) =     -8.21041  eV     1   --> A''            
     e(  5 -  5) =     -7.98759  eV     1   --> A'             
     e(  6 -  6) =     -7.20967  eV     1   --> A'             
     e(  7 -  7) =     -6.32371  eV     1   --> A''            
     e(  8 -  8) =     -5.75583  eV     1   --> A'             
     e(  9 -  9) =     -5.24204  eV     1   --> A'             
     e( 10 - 10) =     -4.64672  eV     1   --> A''            
     e( 11 - 11) =     -4.25310  eV     1   --> A'             
     e( 12 - 12) =     -1.46810  eV     1   --> A'             
     e( 13 - 13) =     -0.81570  eV     1   --> A''            
     e( 14 - 14) =      1.25737  eV     1   --> A'             
     e( 15 - 15) =      2.98912  eV     1   --> A'             

 **************************************************************************

 **************************************************************************

                    xk=(   0.40000,   0.23094,   0.00000  )

     Band symmetry, C_s (m)     point group:

     e(  1 -  1) =    -16.33906  eV     1   --> A'             
     e(  2 -  2) =    -15.88739  eV     1   --> A'             
     e(  3 -  3) =     -9.35393  eV     1   --> A'             
     e(  4 -  4) =     -8.20101  eV     1   --> A''            
     e(  5 -  5) =     -7.88515  eV     1   --> A'             
     e(  6 -  6) =     -7.15736  eV     1   --> A'             
     e(  7 -  7) =     -6.21764  eV     1   --> A''            
     e(  8 -  8) =     -5.71417  eV     1   --> A'             
     e(  9 -  9) =     -5.43542  eV     1   --> A'             
     e( 10 - 10) =     -4.82263  eV     1   --> A''            
     e( 11 - 11) =     -4.40430  eV     1   --> A'             
     e( 12 - 12) =     -1.34005  eV     1   --> A'             
     e( 13 - 13) =     -0.79277  eV     1   --> A''            
     e( 14 - 14) =      1.19802  eV     1   --> A'             
     e( 15 - 15) =      2.89175  eV     1   --> A'             

 **************************************************************************

 **************************************************************************

                    xk=(   0.42500,   0.24537,   0.00000  )

     Band symmetry, C_s (m)     point group:

     e(  1 -  1) =    -16.25551  eV     1   --> A'             
     e(  2 -  2) =    -15.90326  eV     1   --> A'             
     e(  3 -  3) =     -9.48268  eV     1   --> A'             
     e(  4 -  4) =     -8.19550  eV     1   --> A''            
     e(  5 -  5) =     -7.76735  eV     1   --> A'             
     e(  6 -  6) =     -7.14318  eV     1   --> A'             
     e(  7 -  7) =     -6.09953  eV     1   --> A''            
     e(  8 -  8) =     -5.65985  eV     1   --> A'             
     e(  9 -  9) =     -5.58275  eV     1   --> A'             
     e( 10 - 10) =     -4.99508  eV     1   --> A''            
     e( 11 - 11) =     -4.55751  eV     1   --> A'             
     e( 12 - 12) =     -1.23401  eV     1   --> A'             
     e( 13 - 13) =     -0.77318  eV     1   --> A''            
     e( 14 - 14) =      1.16234  eV     1   --> A'             
     e( 15 - 15) =      2.79282  eV     1   --> A'             

 **************************************************************************

 **************************************************************************

                    xk=(   0.45000,   0.25981,   0.00000  )

     Band symmetry, C_s (m)     point group:

     e(  1 -  1) =    -16.18808  eV     1   --> A'             
     e(  2 -  2) =    -15.91959  eV     1   --> A'             
     e(  3 -  3) =     -9.57997  eV     1   --> A'             
     e(  4 -  4) =     -8.19261  eV     1   --> A''            
     e(  5 -  5) =     -7.64126  eV     1   --> A'             
     e(  6 -  6) =     -7.17337  eV     1   --> A'             
     e(  7 -  7) =     -5.97673  eV     1   --> A''            
     e(  8 -  8) =     -5.71015  eV     1   --> A'             
     e(  9 -  9) =     -5.56566  eV     1   --> A'             
     e( 10 - 10) =     -5.15659  eV     1   --> A''            
     e( 11 - 11) =     -4.70186  eV     1   --> A'             
     e( 12 - 12) =     -1.15492  eV     1   --> A'             
     e( 13 - 13) =     -0.75828  eV     1   --> A''            
     e( 14 - 14) =      1.14422  eV     1   --> A'             
     e( 15 - 15) =      2.71145  eV     1   --> A'             

 **************************************************************************

 **************************************************************************

                    xk=(   0.47500,   0.27424,   0.00000  )

     Band symmetry, C_s (m)     point group:

     e(  1 -  1) =    -16.14193  eV     1   --> A'             
     e(  2 -  2) =    -15.93387  eV     1   --> A'             
     e(  3 -  3) =     -9.64045  eV     1   --> A'             
     e(  4 -  4) =     -8.19131  eV     1   --> A''            
     e(  5 -  5) =     -7.51820  eV     1   --> A'             
     e(  6 -  6) =     -7.24058  eV     1   --> A'             
     e(  7 -  7) =     -5.86673  eV     1   --> A''            
     e(  8 -  8) =     -5.77203  eV     1   --> A'             
     e(  9 -  9) =     -5.49436  eV     1   --> A'             
     e( 10 - 10) =     -5.28976  eV     1   --> A''            
     e( 11 - 11) =     -4.81629  eV     1   --> A'             
     e( 12 - 12) =     -1.10617  eV     1   --> A'             
     e( 13 - 13) =     -0.74898  eV     1   --> A''            
     e( 14 - 14) =      1.13696  eV     1   --> A'             
     e( 15 - 15) =      2.65856  eV     1   --> A'             

 **************************************************************************

 **************************************************************************

                    xk=(   0.50000,   0.28868,   0.00000  )

     Band symmetry, C_s (m)     point group:

     e(  1 -  1) =    -16.12486  eV     1   --> A'             
     e(  2 -  2) =    -15.94011  eV     1   --> A'             
     e(  3 -  3) =     -9.66096  eV     1   --> A'             
     e(  4 -  4) =     -8.19095  eV     1   --> A''            
     e(  5 -  5) =     -7.44431  eV     1   --> A'             
     e(  6 -  6) =     -7.29646  eV     1   --> A'             
     e(  7 -  7) =     -5.81541  eV     1   --> A''            
     e(  8 -  8) =     -5.79252  eV     1   --> A'             
     e(  9 -  9) =     -5.46132  eV     1   --> A'             
     e( 10 - 10) =     -5.34878  eV     1   --> A''            
     e( 11 - 11) =     -4.86326  eV     1   --> A'             
     e( 12 - 12) =     -1.08972  eV     1   --> A'             
     e( 13 - 13) =     -0.74582  eV     1   --> A''            
     e( 14 - 14) =      1.13523  eV     1   --> A'             
     e( 15 - 15) =      2.64025  eV     1   --> A'             

 **************************************************************************

 **************************************************************************

                    xk=(   0.49165,   0.30308,   0.00000  )

     point group C_1 (1)    
     there are  1 classes
     the character table:

       E    
A      1.00

     the symmetry operations in each class and the name of the first element:

     E        1
                                                                 

     Band symmetry, C_1 (1)     point group:

     e(  1 -  1) =    -16.12379  eV     1   --> A              
     e(  2 -  2) =    -15.94010  eV     1   --> A              
     e(  3 -  3) =     -9.65812  eV     1   --> A              
     e(  4 -  4) =     -8.19350  eV     1   --> A              
     e(  5 -  5) =     -7.44400  eV     1   --> A              
     e(  6 -  6) =     -7.29314  eV     1   --> A              
     e(  7 -  7) =     -5.81549  eV     1   --> A              
     e(  8 -  8) =     -5.79857  eV     1   --> A              
     e(  9 -  9) =     -5.55206  eV     1   --> A              
     e( 10 - 10) =     -5.26007  eV     1   --> A              
     e( 11 - 11) =     -4.86055  eV     1   --> A              
     e( 12 - 12) =     -1.09109  eV     1   --> A              
     e( 13 - 13) =     -0.75989  eV     1   --> A              
     e( 14 - 14) =      1.14486  eV     1   --> A              
     e( 15 - 15) =      2.65913  eV     1   --> A              

 **************************************************************************

 **************************************************************************

                    xk=(   0.48330,   0.31748,   0.00000  )

     Band symmetry, C_1 (1)     point group:

     e(  1 -  1) =    -16.12058  eV     1   --> A              
     e(  2 -  2) =    -15.94008  eV     1   --> A              
     e(  3 -  3) =     -9.64961  eV     1   --> A              
     e(  4 -  4) =     -8.20097  eV     1   --> A              
     e(  5 -  5) =     -7.44314  eV     1   --> A              
     e(  6 -  6) =     -7.28340  eV     1   --> A              
     e(  7 -  7) =     -5.82703  eV     1   --> A              
     e(  8 -  8) =     -5.81565  eV     1   --> A              
     e(  9 -  9) =     -5.66978  eV     1   --> A              
     e( 10 - 10) =     -5.13791  eV     1   --> A              
     e( 11 - 11) =     -4.85255  eV     1   --> A              
     e( 12 - 12) =     -1.09525  eV     1   --> A              
     e( 13 - 13) =     -0.80080  eV     1   --> A              
     e( 14 - 14) =      1.17356  eV     1   --> A              
     e( 15 - 15) =      2.71431  eV     1   --> A              

 **************************************************************************

 **************************************************************************

                    xk=(   0.47495,   0.33189,   0.00000  )

     Band symmetry, C_1 (1)     point group:

     e(  1 -  1) =    -16.11529  eV     1   --> A              
     e(  2 -  2) =    -15.94004  eV     1   --> A              
     e(  3 -  3) =     -9.63547  eV     1   --> A              
     e(  4 -  4) =     -8.21281  eV     1   --> A              
     e(  5 -  5) =     -7.44201  eV     1   --> A              
     e(  6 -  6) =     -7.26787  eV     1   --> A              
     e(  7 -  7) =     -5.91474  eV     1   --> A              
     e(  8 -  8) =     -5.81568  eV     1   --> A              
     e(  9 -  9) =     -5.73901  eV     1   --> A              
     e( 10 - 10) =     -5.02026  eV     1   --> A              
     e( 11 - 11) =     -4.83967  eV     1   --> A              
     e( 12 - 12) =     -1.10234  eV     1   --> A              
     e( 13 - 13) =     -0.86504  eV     1   --> A              
     e( 14 - 14) =      1.22080  eV     1   --> A              
     e( 15 - 15) =      2.80182  eV     1   --> A              

 **************************************************************************

 **************************************************************************

                    xk=(   0.46660,   0.34629,   0.00000  )

     Band symmetry, C_1 (1)     point group:

     e(  1 -  1) =    -16.10801  eV     1   --> A              
     e(  2 -  2) =    -15.93998  eV     1   --> A              
     e(  3 -  3) =     -9.61574  eV     1   --> A              
     e(  4 -  4) =     -8.22822  eV     1   --> A              
     e(  5 -  5) =     -7.44115  eV     1   --> A              
     e(  6 -  6) =     -7.24745  eV     1   --> A              
     e(  7 -  7) =     -6.05114  eV     1   --> A              
     e(  8 -  8) =     -5.81524  eV     1   --> A              
     e(  9 -  9) =     -5.76553  eV     1   --> A              
     e( 10 - 10) =     -4.91078  eV     1   --> A              
     e( 11 - 11) =     -4.82255  eV     1   --> A              
     e( 12 - 12) =     -1.11256  eV     1   --> A              
     e( 13 - 13) =     -0.94766  eV     1   --> A              
     e( 14 - 14) =      1.28566  eV     1   --> A              
     e( 15 - 15) =      2.91590  eV     1   --> A              

 **************************************************************************

 **************************************************************************

                    xk=(   0.45825,   0.36070,   0.00000  )

     Band symmetry, C_1 (1)     point group:

     e(  1 -  1) =    -16.09886  eV     1   --> A              
     e(  2 -  2) =    -15.93989  eV     1   --> A              
     e(  3 -  3) =     -9.59050  eV     1   --> A              
     e(  4 -  4) =     -8.24630  eV     1   --> A              
     e(  5 -  5) =     -7.44143  eV     1   --> A              
     e(  6 -  6) =     -7.22323  eV     1   --> A              
     e(  7 -  7) =     -6.20082  eV     1   --> A              
     e(  8 -  8) =     -5.81395  eV     1   --> A              
     e(  9 -  9) =     -5.78184  eV     1   --> A              
     e( 10 - 10) =     -4.81068  eV     1   --> A              
     e( 11 - 11) =     -4.80198  eV     1   --> A              
     e( 12 - 12) =     -1.12614  eV     1   --> A              
     e( 13 - 13) =     -1.04318  eV     1   --> A              
     e( 14 - 14) =      1.36680  eV     1   --> A              
     e( 15 - 15) =      3.04989  eV     1   --> A              

 **************************************************************************

 **************************************************************************

                    xk=(   0.44990,   0.37510,   0.00000  )

     Band symmetry, C_1 (1)     point group:

     e(  1 -  1) =    -16.08801  eV     1   --> A              
     e(  2 -  2) =    -15.93977  eV     1   --> A              
     e(  3 -  3) =     -9.55986  eV     1   --> A              
     e(  4 -  4) =     -8.26612  eV     1   --> A              
     e(  5 -  5) =     -7.44427  eV     1   --> A              
     e(  6 -  6) =     -7.19633  eV     1   --> A              
     e(  7 -  7) =     -6.35206  eV     1   --> A              
     e(  8 -  8) =     -5.81145  eV     1   --> A              
     e(  9 -  9) =     -5.79667  eV     1   --> A              
     e( 10 - 10) =     -4.77901  eV     1   --> A              
     e( 11 - 11) =     -4.72042  eV     1   --> A              
     e( 12 - 12) =     -1.14626  eV     1   --> A              
     e( 13 - 13) =     -1.14326  eV     1   --> A              
     e( 14 - 14) =      1.46247  eV     1   --> A              
     e( 15 - 15) =      3.19687  eV     1   --> A              

 **************************************************************************

 **************************************************************************

                    xk=(   0.44155,   0.38951,   0.00000  )

     Band symmetry, C_1 (1)     point group:

     e(  1 -  1) =    -16.07564  eV     1   --> A              
     e(  2 -  2) =    -15.93961  eV     1   --> A              
     e(  3 -  3) =     -9.52395  eV     1   --> A              
     e(  4 -  4) =     -8.28680  eV     1   --> A              
     e(  5 -  5) =     -7.45191  eV     1   --> A              
     e(  6 -  6) =     -7.16783  eV     1   --> A              
     e(  7 -  7) =     -6.49913  eV     1   --> A              
     e(  8 -  8) =     -5.81207  eV     1   --> A              
     e(  9 -  9) =     -5.80744  eV     1   --> A              
     e( 10 - 10) =     -4.75455  eV     1   --> A              
     e( 11 - 11) =     -4.64036  eV     1   --> A              
     e( 12 - 12) =     -1.25187  eV     1   --> A              
     e( 13 - 13) =     -1.16418  eV     1   --> A              
     e( 14 - 14) =      1.57044  eV     1   --> A              
     e( 15 - 15) =      3.35017  eV     1   --> A              

 **************************************************************************

 **************************************************************************

                    xk=(   0.43320,   0.40391,   0.00000  )

     Band symmetry, C_1 (1)     point group:

     e(  1 -  1) =    -16.06198  eV     1   --> A              
     e(  2 -  2) =    -15.93939  eV     1   --> A              
     e(  3 -  3) =     -9.48293  eV     1   --> A              
     e(  4 -  4) =     -8.30758  eV     1   --> A              
     e(  5 -  5) =     -7.46786  eV     1   --> A              
     e(  6 -  6) =     -7.13870  eV     1   --> A              
     e(  7 -  7) =     -6.63663  eV     1   --> A              
     e(  8 -  8) =     -5.82861  eV     1   --> A              
     e(  9 -  9) =     -5.80175  eV     1   --> A              
     e( 10 - 10) =     -4.72966  eV     1   --> A              
     e( 11 - 11) =     -4.57050  eV     1   --> A              
     e( 12 - 12) =     -1.35579  eV     1   --> A              
     e( 13 - 13) =     -1.18893  eV     1   --> A              
     e( 14 - 14) =      1.68800  eV     1   --> A              
     e( 15 - 15) =      3.50380  eV     1   --> A              

 **************************************************************************

 **************************************************************************

                    xk=(   0.42485,   0.41832,   0.00000  )

     Band symmetry, C_1 (1)     point group:

     e(  1 -  1) =    -16.04732  eV     1   --> A              
     e(  2 -  2) =    -15.93911  eV     1   --> A              
     e(  3 -  3) =     -9.43701  eV     1   --> A              
     e(  4 -  4) =     -8.32780  eV     1   --> A              
     e(  5 -  5) =     -7.49713  eV     1   --> A              
     e(  6 -  6) =     -7.10980  eV     1   --> A              
     e(  7 -  7) =     -6.75815  eV     1   --> A              
     e(  8 -  8) =     -5.84641  eV     1   --> A              
     e(  9 -  9) =     -5.79438  eV     1   --> A              
     e( 10 - 10) =     -4.70528  eV     1   --> A              
     e( 11 - 11) =     -4.51076  eV     1   --> A              
     e( 12 - 12) =     -1.45424  eV     1   --> A              
     e( 13 - 13) =     -1.21754  eV     1   --> A              
     e( 14 - 14) =      1.81197  eV     1   --> A              
     e( 15 - 15) =      3.65311  eV     1   --> A              

 **************************************************************************

 **************************************************************************

                    xk=(   0.41650,   0.43272,   0.00000  )

     Band symmetry, C_1 (1)     point group:

     e(  1 -  1) =    -16.03194  eV     1   --> A              
     e(  2 -  2) =    -15.93875  eV     1   --> A              
     e(  3 -  3) =     -9.38645  eV     1   --> A              
     e(  4 -  4) =     -8.34691  eV     1   --> A              
     e(  5 -  5) =     -7.54547  eV     1   --> A              
     e(  6 -  6) =     -7.08182  eV     1   --> A              
     e(  7 -  7) =     -6.85671  eV     1   --> A              
     e(  8 -  8) =     -5.86540  eV     1   --> A              
     e(  9 -  9) =     -5.78553  eV     1   --> A              
     e( 10 - 10) =     -4.68219  eV     1   --> A              
     e( 11 - 11) =     -4.46097  eV     1   --> A              
     e( 12 - 12) =     -1.54408  eV     1   --> A              
     e( 13 - 13) =     -1.24993  eV     1   --> A              
     e( 14 - 14) =      1.93872  eV     1   --> A              
     e( 15 - 15) =      3.79524  eV     1   --> A              

 **************************************************************************

 **************************************************************************

                    xk=(   0.40815,   0.44713,   0.00000  )

     Band symmetry, C_1 (1)     point group:

     e(  1 -  1) =    -16.01618  eV     1   --> A              
     e(  2 -  2) =    -15.93829  eV     1   --> A              
     e(  3 -  3) =     -9.33157  eV     1   --> A              
     e(  4 -  4) =     -8.36448  eV     1   --> A              
     e(  5 -  5) =     -7.61655  eV     1   --> A              
     e(  6 -  6) =     -7.05534  eV     1   --> A              
     e(  7 -  7) =     -6.92761  eV     1   --> A              
     e(  8 -  8) =     -5.88538  eV     1   --> A              
     e(  9 -  9) =     -5.77562  eV     1   --> A              
     e( 10 - 10) =     -4.66091  eV     1   --> A              
     e( 11 - 11) =     -4.42090  eV     1   --> A              
     e( 12 - 12) =     -1.62270  eV     1   --> A              
     e( 13 - 13) =     -1.28591  eV     1   --> A              
     e( 14 - 14) =      2.06418  eV     1   --> A              
     e( 15 - 15) =      3.92928  eV     1   --> A              

 **************************************************************************

 **************************************************************************

                    xk=(   0.39980,   0.46153,   0.00000  )

     Band symmetry, C_1 (1)     point group:

     e(  1 -  1) =    -16.00043  eV     1   --> A              
     e(  2 -  2) =    -15.93773  eV     1   --> A              
     e(  3 -  3) =     -9.27279  eV     1   --> A              
     e(  4 -  4) =     -8.38017  eV     1   --> A              
     e(  5 -  5) =     -7.70870  eV     1   --> A              
     e(  6 -  6) =     -7.03083  eV     1   --> A              
     e(  7 -  7) =     -6.97154  eV     1   --> A              
     e(  8 -  8) =     -5.90606  eV     1   --> A              
     e(  9 -  9) =     -5.76528  eV     1   --> A              
     e( 10 - 10) =     -4.64160  eV     1   --> A              
     e( 11 - 11) =     -4.39032  eV     1   --> A              
     e( 12 - 12) =     -1.68810  eV     1   --> A              
     e( 13 - 13) =     -1.32519  eV     1   --> A              
     e( 14 - 14) =      2.18400  eV     1   --> A              
     e( 15 - 15) =      4.05580  eV     1   --> A              

 **************************************************************************

 **************************************************************************

                    xk=(   0.39145,   0.47594,   0.00000  )

     Band symmetry, C_1 (1)     point group:

     e(  1 -  1) =    -15.98507  eV     1   --> A              
     e(  2 -  2) =    -15.93703  eV     1   --> A              
     e(  3 -  3) =     -9.21064  eV     1   --> A              
     e(  4 -  4) =     -8.39373  eV     1   --> A              
     e(  5 -  5) =     -7.81552  eV     1   --> A              
     e(  6 -  6) =     -7.00866  eV     1   --> A              
     e(  7 -  7) =     -6.99393  eV     1   --> A              
     e(  8 -  8) =     -5.92706  eV     1   --> A              
     e(  9 -  9) =     -5.75528  eV     1   --> A              
     e( 10 - 10) =     -4.62398  eV     1   --> A              
     e( 11 - 11) =     -4.36900  eV     1   --> A              
     e( 12 - 12) =     -1.73889  eV     1   --> A              
     e( 13 - 13) =     -1.36738  eV     1   --> A              
     e( 14 - 14) =      2.29380  eV     1   --> A              
     e( 15 - 15) =      4.17606  eV     1   --> A              

 **************************************************************************

 **************************************************************************

                    xk=(   0.38310,   0.49034,   0.00000  )

     Band symmetry, C_1 (1)     point group:

     e(  1 -  1) =    -15.97055  eV     1   --> A              
     e(  2 -  2) =    -15.93619  eV     1   --> A              
     e(  3 -  3) =     -9.14585  eV     1   --> A              
     e(  4 -  4) =     -8.40499  eV     1   --> A              
     e(  5 -  5) =     -7.92947  eV     1   --> A              
     e(  6 -  6) =     -7.00137  eV     1   --> A              
     e(  7 -  7) =     -6.98914  eV     1   --> A              
     e(  8 -  8) =     -5.94789  eV     1   --> A              
     e(  9 -  9) =     -5.74646  eV     1   --> A              
     e( 10 - 10) =     -4.60731  eV     1   --> A              
     e( 11 - 11) =     -4.35668  eV     1   --> A              
     e( 12 - 12) =     -1.77432  eV     1   --> A              
     e( 13 - 13) =     -1.41199  eV     1   --> A              
     e( 14 - 14) =      2.38960  eV     1   --> A              
     e( 15 - 15) =      4.29118  eV     1   --> A              

 **************************************************************************

 **************************************************************************

                    xk=(   0.37475,   0.50475,   0.00000  )

     Band symmetry, C_1 (1)     point group:

     e(  1 -  1) =    -15.95730  eV     1   --> A              
     e(  2 -  2) =    -15.93518  eV     1   --> A              
     e(  3 -  3) =     -9.07947  eV     1   --> A              
     e(  4 -  4) =     -8.41383  eV     1   --> A              
     e(  5 -  5) =     -8.04407  eV     1   --> A              
     e(  6 -  6) =     -6.99921  eV     1   --> A              
     e(  7 -  7) =     -6.97260  eV     1   --> A              
     e(  8 -  8) =     -5.96797  eV     1   --> A              
     e(  9 -  9) =     -5.73959  eV     1   --> A              
     e( 10 - 10) =     -4.59045  eV     1   --> A              
     e( 11 - 11) =     -4.35314  eV     1   --> A              
     e( 12 - 12) =     -1.79430  eV     1   --> A              
     e( 13 - 13) =     -1.45844  eV     1   --> A              
     e( 14 - 14) =      2.46843  eV     1   --> A              
     e( 15 - 15) =      4.40130  eV     1   --> A              

 **************************************************************************

 **************************************************************************

                    xk=(   0.36640,   0.51915,   0.00000  )

     Band symmetry, C_1 (1)     point group:

     e(  1 -  1) =    -15.94581  eV     1   --> A              
     e(  2 -  2) =    -15.93398  eV     1   --> A              
     e(  3 -  3) =     -9.01308  eV     1   --> A              
     e(  4 -  4) =     -8.42023  eV     1   --> A              
     e(  5 -  5) =     -8.15402  eV     1   --> A              
     e(  6 -  6) =     -6.99132  eV     1   --> A              
     e(  7 -  7) =     -6.95939  eV     1   --> A              
     e(  8 -  8) =     -5.98657  eV     1   --> A              
     e(  9 -  9) =     -5.73522  eV     1   --> A              
     e( 10 - 10) =     -4.57202  eV     1   --> A              
     e( 11 - 11) =     -4.35813  eV     1   --> A              
     e( 12 - 12) =     -1.79934  eV     1   --> A              
     e( 13 - 13) =     -1.50610  eV     1   --> A              
     e( 14 - 14) =      2.52886  eV     1   --> A              
     e( 15 - 15) =      4.44520  eV     1   --> A              

 **************************************************************************

 **************************************************************************

                    xk=(   0.35805,   0.53356,   0.00000  )

     Band symmetry, C_1 (1)     point group:

     e(  1 -  1) =    -15.93656  eV     1   --> A              
     e(  2 -  2) =    -15.93257  eV     1   --> A              
     e(  3 -  3) =     -8.94934  eV     1   --> A              
     e(  4 -  4) =     -8.42421  eV     1   --> A              
     e(  5 -  5) =     -8.25430  eV     1   --> A              
     e(  6 -  6) =     -6.98043  eV     1   --> A              
     e(  7 -  7) =     -6.94988  eV     1   --> A              
     e(  8 -  8) =     -6.00285  eV     1   --> A              
     e(  9 -  9) =     -5.73345  eV     1   --> A              
     e( 10 - 10) =     -4.55061  eV     1   --> A              
     e( 11 - 11) =     -4.37136  eV     1   --> A              
     e( 12 - 12) =     -1.79049  eV     1   --> A              
     e( 13 - 13) =     -1.55426  eV     1   --> A              
     e( 14 - 14) =      2.57130  eV     1   --> A              
     e( 15 - 15) =      4.47972  eV     1   --> A              

 **************************************************************************

 **************************************************************************

                    xk=(   0.34970,   0.54796,   0.00000  )

     Band symmetry, C_1 (1)     point group:

     e(  1 -  1) =    -15.93101  eV     1   --> A              
     e(  2 -  2) =    -15.92994  eV     1   --> A              
     e(  3 -  3) =     -8.89290  eV     1   --> A              
     e(  4 -  4) =     -8.42584  eV     1   --> A              
     e(  5 -  5) =     -8.33873  eV     1   --> A              
     e(  6 -  6) =     -6.96863  eV     1   --> A              
     e(  7 -  7) =     -6.94454  eV     1   --> A              
     e(  8 -  8) =     -6.01584  eV     1   --> A              
     e(  9 -  9) =     -5.73382  eV     1   --> A              
     e( 10 - 10) =     -4.52500  eV     1   --> A              
     e( 11 - 11) =     -4.39251  eV     1   --> A              
     e( 12 - 12) =     -1.76921  eV     1   --> A              
     e( 13 - 13) =     -1.60223  eV     1   --> A              
     e( 14 - 14) =      2.59778  eV     1   --> A              
     e( 15 - 15) =      4.53107  eV     1   --> A              

 **************************************************************************

 **************************************************************************

                    xk=(   0.34135,   0.56237,   0.00000  )

     Band symmetry, C_1 (1)     point group:

     e(  1 -  1) =    -15.92910  eV     1   --> A              
     e(  2 -  2) =    -15.92660  eV     1   --> A              
     e(  3 -  3) =     -8.85184  eV     1   --> A              
     e(  4 -  4) =     -8.42528  eV     1   --> A              
     e(  5 -  5) =     -8.39836  eV     1   --> A              
     e(  6 -  6) =     -6.95758  eV     1   --> A              
     e(  7 -  7) =     -6.94388  eV     1   --> A              
     e(  8 -  8) =     -6.02448  eV     1   --> A              
     e(  9 -  9) =     -5.73526  eV     1   --> A              
     e( 10 - 10) =     -4.49436  eV     1   --> A              
     e( 11 - 11) =     -4.42112  eV     1   --> A              
     e( 12 - 12) =     -1.73727  eV     1   --> A              
     e( 13 - 13) =     -1.64928  eV     1   --> A              
     e( 14 - 14) =      2.61130  eV     1   --> A              
     e( 15 - 15) =      4.59571  eV     1   --> A              

 **************************************************************************

 **************************************************************************

                    xk=(   0.33300,   0.57677,   0.00000  )

     Band symmetry, C_1 (1)     point group:

     e(  1 -  1) =    -15.92700  eV     1   --> A              
     e(  2 -  2) =    -15.92681  eV     1   --> A              
     e(  3 -  3) =     -8.83634  eV     1   --> A              
     e(  4 -  4) =     -8.42277  eV     1   --> A              
     e(  5 -  5) =     -8.42251  eV     1   --> A              
     e(  6 -  6) =     -6.94884  eV     1   --> A              
     e(  7 -  7) =     -6.94825  eV     1   --> A              
     e(  8 -  8) =     -6.02768  eV     1   --> A              
     e(  9 -  9) =     -5.73619  eV     1   --> A              
     e( 10 - 10) =     -4.45904  eV     1   --> A              
     e( 11 - 11) =     -4.45592  eV     1   --> A              
     e( 12 - 12) =     -1.69747  eV     1   --> A              
     e( 13 - 13) =     -1.69392  eV     1   --> A              
     e( 14 - 14) =      2.61519  eV     1   --> A              
     e( 15 - 15) =      4.66856  eV     1   --> A              

 **************************************************************************

 **************************************************************************

                    xk=(   0.31635,   0.54793,   0.00000  )

     Band symmetry, C_1 (1)     point group:

     e(  1 -  1) =    -15.94049  eV     1   --> A              
     e(  2 -  2) =    -15.92164  eV     1   --> A              
     e(  3 -  3) =     -8.88152  eV     1   --> A              
     e(  4 -  4) =     -8.41233  eV     1   --> A              
     e(  5 -  5) =     -8.36416  eV     1   --> A              
     e(  6 -  6) =     -6.97530  eV     1   --> A              
     e(  7 -  7) =     -6.94164  eV     1   --> A              
     e(  8 -  8) =     -6.01310  eV     1   --> A              
     e(  9 -  9) =     -5.72826  eV     1   --> A              
     e( 10 - 10) =     -4.54844  eV     1   --> A              
     e( 11 - 11) =     -4.36747  eV     1   --> A              
     e( 12 - 12) =     -1.78103  eV     1   --> A              
     e( 13 - 13) =     -1.59431  eV     1   --> A              
     e( 14 - 14) =      2.60539  eV     1   --> A              
     e( 15 - 15) =      4.41858  eV     1   --> A              

 **************************************************************************

 **************************************************************************

                    xk=(   0.29970,   0.51910,   0.00000  )

     Band symmetry, C_1 (1)     point group:

     e(  1 -  1) =    -15.97275  eV     1   --> A              
     e(  2 -  2) =    -15.91522  eV     1   --> A              
     e(  3 -  3) =     -8.94873  eV     1   --> A              
     e(  4 -  4) =     -8.39820  eV     1   --> A              
     e(  5 -  5) =     -8.24688  eV     1   --> A              
     e(  6 -  6) =     -7.02311  eV     1   --> A              
     e(  7 -  7) =     -6.95286  eV     1   --> A              
     e(  8 -  8) =     -5.96845  eV     1   --> A              
     e(  9 -  9) =     -5.69568  eV     1   --> A              
     e( 10 - 10) =     -4.65369  eV     1   --> A              
     e( 11 - 11) =     -4.26197  eV     1   --> A              
     e( 12 - 12) =     -1.85189  eV     1   --> A              
     e( 13 - 13) =     -1.48575  eV     1   --> A              
     e( 14 - 14) =      2.58772  eV     1   --> A              
     e( 15 - 15) =      4.11693  eV     1   --> A              

 **************************************************************************

 **************************************************************************

                    xk=(   0.28305,   0.49026,   0.00000  )

     Band symmetry, C_1 (1)     point group:

     e(  1 -  1) =    -16.02519  eV     1   --> A              
     e(  2 -  2) =    -15.90751  eV     1   --> A              
     e(  3 -  3) =     -8.98817  eV     1   --> A              
     e(  4 -  4) =     -8.38408  eV     1   --> A              
     e(  5 -  5) =     -8.12744  eV     1   --> A              
     e(  6 -  6) =     -7.08541  eV     1   --> A              
     e(  7 -  7) =     -6.98064  eV     1   --> A              
     e(  8 -  8) =     -5.89712  eV     1   --> A              
     e(  9 -  9) =     -5.62955  eV     1   --> A              
     e( 10 - 10) =     -4.76131  eV     1   --> A              
     e( 11 - 11) =     -4.14563  eV     1   --> A              
     e( 12 - 12) =     -1.90747  eV     1   --> A              
     e( 13 - 13) =     -1.38504  eV     1   --> A              
     e( 14 - 14) =      2.57265  eV     1   --> A              
     e( 15 - 15) =      3.83545  eV     1   --> A              

 **************************************************************************

 **************************************************************************

                    xk=(   0.26640,   0.46142,   0.00000  )

     Band symmetry, C_1 (1)     point group:

     e(  1 -  1) =    -16.09781  eV     1   --> A              
     e(  2 -  2) =    -15.89850  eV     1   --> A              
     e(  3 -  3) =     -8.98681  eV     1   --> A              
     e(  4 -  4) =     -8.37491  eV     1   --> A              
     e(  5 -  5) =     -8.02829  eV     1   --> A              
     e(  6 -  6) =     -7.15009  eV     1   --> A              
     e(  7 -  7) =     -7.01952  eV     1   --> A              
     e(  8 -  8) =     -5.81283  eV     1   --> A              
     e(  9 -  9) =     -5.52761  eV     1   --> A              
     e( 10 - 10) =     -4.85031  eV     1   --> A              
     e( 11 - 11) =     -4.02485  eV     1   --> A              
     e( 12 - 12) =     -1.94625  eV     1   --> A              
     e( 13 - 13) =     -1.30797  eV     1   --> A              
     e( 14 - 14) =      2.56554  eV     1   --> A              
     e( 15 - 15) =      3.59429  eV     1   --> A              

 **************************************************************************

 **************************************************************************

                    xk=(   0.24975,   0.43258,   0.00000  )

     Band symmetry, C_1 (1)     point group:

     e(  1 -  1) =    -16.18921  eV     1   --> A              
     e(  2 -  2) =    -15.88825  eV     1   --> A              
     e(  3 -  3) =     -8.94340  eV     1   --> A              
     e(  4 -  4) =     -8.37595  eV     1   --> A              
     e(  5 -  5) =     -7.96076  eV     1   --> A              
     e(  6 -  6) =     -7.20353  eV     1   --> A              
     e(  7 -  7) =     -7.06361  eV     1   --> A              
     e(  8 -  8) =     -5.74092  eV     1   --> A              
     e(  9 -  9) =     -5.39172  eV     1   --> A              
     e( 10 - 10) =     -4.88996  eV     1   --> A              
     e( 11 - 11) =     -3.90547  eV     1   --> A              
     e( 12 - 12) =     -1.96709  eV     1   --> A              
     e( 13 - 13) =     -1.26786  eV     1   --> A              
     e( 14 - 14) =      2.56903  eV     1   --> A              
     e( 15 - 15) =      3.40096  eV     1   --> A              

 **************************************************************************

 **************************************************************************

                    xk=(   0.23310,   0.40374,   0.00000  )

     Band symmetry, C_1 (1)     point group:

     e(  1 -  1) =    -16.29674  eV     1   --> A              
     e(  2 -  2) =    -15.87689  eV     1   --> A              
     e(  3 -  3) =     -8.86218  eV     1   --> A              
     e(  4 -  4) =     -8.39115  eV     1   --> A              
     e(  5 -  5) =     -7.92886  eV     1   --> A              
     e(  6 -  6) =     -7.23443  eV     1   --> A              
     e(  7 -  7) =     -7.10940  eV     1   --> A              
     e(  8 -  8) =     -5.70812  eV     1   --> A              
     e(  9 -  9) =     -5.22543  eV     1   --> A              
     e( 10 - 10) =     -4.85016  eV     1   --> A              
     e( 11 - 11) =     -3.79267  eV     1   --> A              
     e( 12 - 12) =     -1.96861  eV     1   --> A              
     e( 13 - 13) =     -1.27325  eV     1   --> A              
     e( 14 - 14) =      2.58452  eV     1   --> A              
     e( 15 - 15) =      3.25481  eV     1   --> A              

 **************************************************************************

 **************************************************************************

                    xk=(   0.21645,   0.37490,   0.00000  )

     Band symmetry, C_1 (1)     point group:

     e(  1 -  1) =    -16.41692  eV     1   --> A              
     e(  2 -  2) =    -15.86461  eV     1   --> A              
     e(  3 -  3) =     -8.75186  eV     1   --> A              
     e(  4 -  4) =     -8.42121  eV     1   --> A              
     e(  5 -  5) =     -7.92933  eV     1   --> A              
     e(  6 -  6) =     -7.23666  eV     1   --> A              
     e(  7 -  7) =     -7.15566  eV     1   --> A              
     e(  8 -  8) =     -5.71495  eV     1   --> A              
     e(  9 -  9) =     -5.03288  eV     1   --> A              
     e( 10 - 10) =     -4.73040  eV     1   --> A              
     e( 11 - 11) =     -3.69104  eV     1   --> A              
     e( 12 - 12) =     -1.94871  eV     1   --> A              
     e( 13 - 13) =     -1.32568  eV     1   --> A              
     e( 14 - 14) =      2.61293  eV     1   --> A              
     e( 15 - 15) =      3.14665  eV     1   --> A              

 **************************************************************************

 **************************************************************************

                    xk=(   0.19980,   0.34606,   0.00000  )

     Band symmetry, C_1 (1)     point group:

     e(  1 -  1) =    -16.54579  eV     1   --> A              
     e(  2 -  2) =    -15.85168  eV     1   --> A              
     e(  3 -  3) =     -8.62667  eV     1   --> A              
     e(  4 -  4) =     -8.46288  eV     1   --> A              
     e(  5 -  5) =     -7.95318  eV     1   --> A              
     e(  6 -  6) =     -7.20996  eV     1   --> A              
     e(  7 -  7) =     -7.19922  eV     1   --> A              
     e(  8 -  8) =     -5.73674  eV     1   --> A              
     e(  9 -  9) =     -4.81881  eV     1   --> A              
     e( 10 - 10) =     -4.56010  eV     1   --> A              
     e( 11 - 11) =     -3.60467  eV     1   --> A              
     e( 12 - 12) =     -1.90444  eV     1   --> A              
     e( 13 - 13) =     -1.41875  eV     1   --> A              
     e( 14 - 14) =      2.65507  eV     1   --> A              
     e( 15 - 15) =      3.05996  eV     1   --> A              

 **************************************************************************

 **************************************************************************

                    xk=(   0.18315,   0.31723,   0.00000  )

     Band symmetry, C_1 (1)     point group:

     e(  1 -  1) =    -16.67927  eV     1   --> A              
     e(  2 -  2) =    -15.83839  eV     1   --> A              
     e(  3 -  3) =     -8.51038  eV     1   --> A              
     e(  4 -  4) =     -8.50858  eV     1   --> A              
     e(  5 -  5) =     -7.98923  eV     1   --> A              
     e(  6 -  6) =     -7.22861  eV     1   --> A              
     e(  7 -  7) =     -7.15821  eV     1   --> A              
     e(  8 -  8) =     -5.75177  eV     1   --> A              
     e(  9 -  9) =     -4.58913  eV     1   --> A              
     e( 10 - 10) =     -4.37060  eV     1   --> A              
     e( 11 - 11) =     -3.53739  eV     1   --> A              
     e( 12 - 12) =     -1.83237  eV     1   --> A              
     e( 13 - 13) =     -1.53880  eV     1   --> A              
     e( 14 - 14) =      2.71144  eV     1   --> A              
     e( 15 - 15) =      2.97593  eV     1   --> A              

 **************************************************************************

 **************************************************************************

                    xk=(   0.16650,   0.28839,   0.00000  )

     Band symmetry, C_1 (1)     point group:

     e(  1 -  1) =    -16.81344  eV     1   --> A              
     e(  2 -  2) =    -15.82507  eV     1   --> A              
     e(  3 -  3) =     -8.55774  eV     1   --> A              
     e(  4 -  4) =     -8.42593  eV     1   --> A              
     e(  5 -  5) =     -8.02920  eV     1   --> A              
     e(  6 -  6) =     -7.22133  eV     1   --> A              
     e(  7 -  7) =     -7.08695  eV     1   --> A              
     e(  8 -  8) =     -5.74935  eV     1   --> A              
     e(  9 -  9) =     -4.35188  eV     1   --> A              
     e( 10 - 10) =     -4.18474  eV     1   --> A              
     e( 11 - 11) =     -3.49297  eV     1   --> A              
     e( 12 - 12) =     -1.72984  eV     1   --> A              
     e( 13 - 13) =     -1.66637  eV     1   --> A              
     e( 14 - 14) =      2.77935  eV     1   --> A              
     e( 15 - 15) =      2.88055  eV     1   --> A              

 **************************************************************************

 **************************************************************************

                    xk=(   0.14985,   0.25955,   0.00000  )

     Band symmetry, C_1 (1)     point group:

     e(  1 -  1) =    -16.94472  eV     1   --> A              
     e(  2 -  2) =    -15.81206  eV     1   --> A              
     e(  3 -  3) =     -8.60019  eV     1   --> A              
     e(  4 -  4) =     -8.39710  eV     1   --> A              
     e(  5 -  5) =     -8.07545  eV     1   --> A              
     e(  6 -  6) =     -7.15492  eV     1   --> A              
     e(  7 -  7) =     -7.00175  eV     1   --> A              
     e(  8 -  8) =     -5.72479  eV     1   --> A              
     e(  9 -  9) =     -4.11856  eV     1   --> A              
     e( 10 - 10) =     -4.01756  eV     1   --> A              
     e( 11 - 11) =     -3.47552  eV     1   --> A              
     e( 12 - 12) =     -1.77684  eV     1   --> A              
     e( 13 - 13) =     -1.59678  eV     1   --> A              
     e( 14 - 14) =      2.71956  eV     1   --> A              
     e( 15 - 15) =      2.76929  eV     1   --> A              

 **************************************************************************

 **************************************************************************

                    xk=(   0.13320,   0.23071,   0.00000  )

     Band symmetry, C_1 (1)     point group:

     e(  1 -  1) =    -17.06991  eV     1   --> A              
     e(  2 -  2) =    -15.79967  eV     1   --> A              
     e(  3 -  3) =     -8.63471  eV     1   --> A              
     e(  4 -  4) =     -8.41290  eV     1   --> A              
     e(  5 -  5) =     -8.13738  eV     1   --> A              
     e(  6 -  6) =     -7.03062  eV     1   --> A              
     e(  7 -  7) =     -6.90766  eV     1   --> A              
     e(  8 -  8) =     -5.67441  eV     1   --> A              
     e(  9 -  9) =     -3.90493  eV     1   --> A              
     e( 10 - 10) =     -3.87714  eV     1   --> A              
     e( 11 - 11) =     -3.48932  eV     1   --> A              
     e( 12 - 12) =     -1.84120  eV     1   --> A              
     e( 13 - 13) =     -1.43760  eV     1   --> A              
     e( 14 - 14) =      2.48369  eV     1   --> A              
     e( 15 - 15) =      2.64608  eV     1   --> A              

 **************************************************************************

 **************************************************************************

                    xk=(   0.11655,   0.20187,   0.00000  )

     Band symmetry, C_1 (1)     point group:

     e(  1 -  1) =    -17.18625  eV     1   --> A              
     e(  2 -  2) =    -15.78819  eV     1   --> A              
     e(  3 -  3) =     -8.65989  eV     1   --> A              
     e(  4 -  4) =     -8.45189  eV     1   --> A              
     e(  5 -  5) =     -8.21486  eV     1   --> A              
     e(  6 -  6) =     -6.87565  eV     1   --> A              
     e(  7 -  7) =     -6.80929  eV     1   --> A              
     e(  8 -  8) =     -5.59337  eV     1   --> A              
     e(  9 -  9) =     -3.76535  eV     1   --> A              
     e( 10 - 10) =     -3.72917  eV     1   --> A              
     e( 11 - 11) =     -3.53696  eV     1   --> A              
     e( 12 - 12) =     -1.83062  eV     1   --> A              
     e( 13 - 13) =     -1.26161  eV     1   --> A              
     e( 14 - 14) =      2.24547  eV     1   --> A              
     e( 15 - 15) =      2.51856  eV     1   --> A              

 **************************************************************************

 **************************************************************************

                    xk=(   0.09990,   0.17303,   0.00000  )

     Band symmetry, C_1 (1)     point group:

     e(  1 -  1) =    -17.29140  eV     1   --> A              
     e(  2 -  2) =    -15.77788  eV     1   --> A              
     e(  3 -  3) =     -8.67571  eV     1   --> A              
     e(  4 -  4) =     -8.49886  eV     1   --> A              
     e(  5 -  5) =     -8.29905  eV     1   --> A              
     e(  6 -  6) =     -6.72219  eV     1   --> A              
     e(  7 -  7) =     -6.71098  eV     1   --> A              
     e(  8 -  8) =     -5.47708  eV     1   --> A              
     e(  9 -  9) =     -3.67950  eV     1   --> A              
     e( 10 - 10) =     -3.61678  eV     1   --> A              
     e( 11 - 11) =     -3.60292  eV     1   --> A              
     e( 12 - 12) =     -1.72839  eV     1   --> A              
     e( 13 - 13) =     -1.08160  eV     1   --> A              
     e( 14 - 14) =      2.00742  eV     1   --> A              
     e( 15 - 15) =      2.39408  eV     1   --> A              

 **************************************************************************

 **************************************************************************

                    xk=(   0.08325,   0.14419,   0.00000  )

     Band symmetry, C_1 (1)     point group:

     e(  1 -  1) =    -17.38343  eV     1   --> A              
     e(  2 -  2) =    -15.76891  eV     1   --> A              
     e(  3 -  3) =     -8.68324  eV     1   --> A              
     e(  4 -  4) =     -8.54567  eV     1   --> A              
     e(  5 -  5) =     -8.38093  eV     1   --> A              
     e(  6 -  6) =     -6.61704  eV     1   --> A              
     e(  7 -  7) =     -6.59278  eV     1   --> A              
     e(  8 -  8) =     -5.32666  eV     1   --> A              
     e(  9 -  9) =     -3.71540  eV     1   --> A              
     e( 10 - 10) =     -3.61465  eV     1   --> A              
     e( 11 - 11) =     -3.52861  eV     1   --> A              
     e( 12 - 12) =     -1.54086  eV     1   --> A              
     e( 13 - 13) =     -0.91119  eV     1   --> A              
     e( 14 - 14) =      1.77031  eV     1   --> A              
     e( 15 - 15) =      2.27794  eV     1   --> A              

 **************************************************************************

 **************************************************************************

                    xk=(   0.06660,   0.11535,   0.00000  )

     Band symmetry, C_1 (1)     point group:

     e(  1 -  1) =    -17.46075  eV     1   --> A              
     e(  2 -  2) =    -15.76145  eV     1   --> A              
     e(  3 -  3) =     -8.68437  eV     1   --> A              
     e(  4 -  4) =     -8.58795  eV     1   --> A              
     e(  5 -  5) =     -8.45394  eV     1   --> A              
     e(  6 -  6) =     -6.53177  eV     1   --> A              
     e(  7 -  7) =     -6.49599  eV     1   --> A              
     e(  8 -  8) =     -5.15418  eV     1   --> A              
     e(  9 -  9) =     -3.82132  eV     1   --> A              
     e( 10 - 10) =     -3.56555  eV     1   --> A              
     e( 11 - 11) =     -3.49091  eV     1   --> A              
     e( 12 - 12) =     -1.29385  eV     1   --> A              
     e( 13 - 13) =     -0.76237  eV     1   --> A              
     e( 14 - 14) =      1.54019  eV     1   --> A              
     e( 15 - 15) =      2.17265  eV     1   --> A              

 **************************************************************************

 **************************************************************************

                    xk=(   0.04995,   0.08652,   0.00000  )

     Band symmetry, C_1 (1)     point group:

     e(  1 -  1) =    -17.52212  eV     1   --> A              
     e(  2 -  2) =    -15.75557  eV     1   --> A              
     e(  3 -  3) =     -8.68148  eV     1   --> A              
     e(  4 -  4) =     -8.62321  eV     1   --> A              
     e(  5 -  5) =     -8.51376  eV     1   --> A              
     e(  6 -  6) =     -6.45948  eV     1   --> A              
     e(  7 -  7) =     -6.42970  eV     1   --> A              
     e(  8 -  8) =     -4.98155  eV     1   --> A              
     e(  9 -  9) =     -3.91928  eV     1   --> A              
     e( 10 - 10) =     -3.52798  eV     1   --> A              
     e( 11 - 11) =     -3.47621  eV     1   --> A              
     e( 12 - 12) =     -1.02156  eV     1   --> A              
     e( 13 - 13) =     -0.64384  eV     1   --> A              
     e( 14 - 14) =      1.33033  eV     1   --> A              
     e( 15 - 15) =      2.07636  eV     1   --> A              

 **************************************************************************

 **************************************************************************

                    xk=(   0.03330,   0.05768,   0.00000  )

     Band symmetry, C_1 (1)     point group:

     e(  1 -  1) =    -17.56661  eV     1   --> A              
     e(  2 -  2) =    -15.75135  eV     1   --> A              
     e(  3 -  3) =     -8.67709  eV     1   --> A              
     e(  4 -  4) =     -8.64977  eV     1   --> A              
     e(  5 -  5) =     -8.55771  eV     1   --> A              
     e(  6 -  6) =     -6.40424  eV     1   --> A              
     e(  7 -  7) =     -6.38783  eV     1   --> A              
     e(  8 -  8) =     -4.83439  eV     1   --> A              
     e(  9 -  9) =     -3.99760  eV     1   --> A              
     e( 10 - 10) =     -3.49978  eV     1   --> A              
     e( 11 - 11) =     -3.47310  eV     1   --> A              
     e( 12 - 12) =     -0.76369  eV     1   --> A              
     e( 13 - 13) =     -0.56015  eV     1   --> A              
     e( 14 - 14) =      1.15959  eV     1   --> A              
     e( 15 - 15) =      1.97980  eV     1   --> A              

 **************************************************************************

 **************************************************************************

                    xk=(   0.01665,   0.02884,   0.00000  )

     Band symmetry, C_1 (1)     point group:

     e(  1 -  1) =    -17.59357  eV     1   --> A              
     e(  2 -  2) =    -15.74880  eV     1   --> A              
     e(  3 -  3) =     -8.67342  eV     1   --> A              
     e(  4 -  4) =     -8.66636  eV     1   --> A              
     e(  5 -  5) =     -8.58438  eV     1   --> A              
     e(  6 -  6) =     -6.36952  eV     1   --> A              
     e(  7 -  7) =     -6.36493  eV     1   --> A              
     e(  8 -  8) =     -4.73564  eV     1   --> A              
     e(  9 -  9) =     -4.04794  eV     1   --> A              
     e( 10 - 10) =     -3.48137  eV     1   --> A              
     e( 11 - 11) =     -3.47406  eV     1   --> A              
     e( 12 - 12) =     -0.56993  eV     1   --> A              
     e( 13 - 13) =     -0.51164  eV     1   --> A              
     e( 14 - 14) =      1.04754  eV     1   --> A              
     e( 15 - 15) =      1.88173  eV     1   --> A              

 **************************************************************************

 **************************************************************************

                    xk=(   0.00000,   0.00000,   0.00000  )

     point group C_3v (3m)  
     there are  3 classes
     the character table:

       E     2C3   3s_v 
A_1    1.00  1.00  1.00
A_2    1.00  1.00 -1.00
E      2.00 -1.00  0.00

     the symmetry operations in each class and the name of the first element:

     E        1
                                                                 
     2C3      2    3
                                                                 
     3s_v     4    5    6
                                                                 

     Band symmetry, C_3v (3m)   point group:

     e(  1 -  1) =    -17.60259  eV     1   --> A_1  L_1       
     e(  2 -  2) =    -15.74795  eV     1   --> A_1  L_1       
     e(  3 -  4) =     -8.67203  eV     2   --> E    L_3       
     e(  5 -  5) =     -8.59330  eV     1   --> A_1  L_1       
     e(  6 -  7) =     -6.35766  eV     2   --> E    L_3       
     e(  8 -  8) =     -4.70089  eV     1   --> A_1  L_1       
     e(  9 -  9) =     -4.06528  eV     1   --> A_1  L_1       
     e( 10 - 11) =     -3.47484  eV     2   --> E    L_3       
     e( 12 - 13) =     -0.49599  eV     2   --> E    L_3       
     e( 14 - 14) =      1.00848  eV     1   --> A_1  L_1       
     e( 15 - 15) =      1.83473  eV     1   --> A_1  L_1       

 **************************************************************************

     BANDS        :   1m16.53s CPU   1m30.79s WALL


   This run was terminated on:  13:45:25  19Jun2025            

=------------------------------------------------------------------------------=
   JOB DONE.
=------------------------------------------------------------------------------=
