
     Program PWSCF v.7.2 starts on 19Jun2025 at 14:31:14 

     This program is part of the open-source Quantum ESPRESSO suite
     for quantum simulation of materials; please cite
         "P. Giannozzi et al., J. Phys.:Condens. Matter 21 395502 (2009);
         "P. Giannozzi et al., J. Phys.:Condens. Matter 29 465901 (2017);
         "P. Giannozzi et al., J. Chem. Phys. 152 154105 (2020);
          URL http://www.quantum-espresso.org", 
     in publications or presentations arising from this work. More details at
     http://www.quantum-espresso.org/quote

     Parallel version (MPI & OpenMP), running on      10 processor cores
     Number of MPI processes:                10
     Threads/MPI process:                     1

     MPI processes distributed on     1 nodes
     74124 MiB available memory on the printing compute node when the environment starts

     Reading input from ptse2.scf.in

     Current dimensions of program PWSCF are:
     Max number of different atomic species (ntypx) = 10
     Max number of k-points (npk) =  40000
     Max angular momentum in pseudopotentials (lmaxx) =  4
     file Pt.rel.UPF: wavefunction(s)  5D renormalized
     Message from routine setup:
     using ibrav=0 with symmetry is DISCOURAGED, use correct ibrav instead

     R & G space division:  proc/nbgrp/npool/nimage =      10
     Subspace diagonalization in iterative solution of the eigenvalue problem:
     a serial algorithm will be used


     Parallelization info
     --------------------
     sticks:   dense  smooth     PW     G-vecs:    dense   smooth      PW
     Min         409     163     47               170929    43257    6697
     Max         410     164     48               170954    43296    6720
     Sum        4093    1639    475              1709389   432857   67071

     Using Slab Decomposition



     bravais-lattice index     =            0
     lattice parameter (alat)  =       7.0430  a.u.
     unit-cell volume          =    2435.3830 (a.u.)^3
     number of atoms/cell      =            3
     number of atomic types    =            2
     number of electrons       =        22.00
     number of Kohn-Sham states=           30
     kinetic-energy cutoff     =     120.0000  Ry
     charge density cutoff     =    1200.0000  Ry
     scf convergence threshold =      1.0E-07
     mixing beta               =       0.1000
     number of iterations used =            8  plain     mixing
     Exchange-correlation= LDA
                           (   1   1   0   0   0   0   0)
     Non magnetic calculation with spin-orbit


     celldm(1)=   7.043009  celldm(2)=   0.000000  celldm(3)=   0.000000
     celldm(4)=   0.000000  celldm(5)=   0.000000  celldm(6)=   0.000000

     crystal axes: (cart. coord. in units of alat)
               a(1) = (   1.000000   0.000000   0.000000 )  
               a(2) = (  -0.500000   0.866025   0.000000 )  
               a(3) = (   0.000000   0.000000   8.049369 )  

     reciprocal axes: (cart. coord. in units 2 pi/alat)
               b(1) = (  1.000000  0.577350 -0.000000 )  
               b(2) = (  0.000000  1.154701  0.000000 )  
               b(3) = (  0.000000 -0.000000  0.124233 )  


     PseudoPot. # 1 for Pt read from file:
     /opt/project/dorye_projects/brazil_kpm/lda_pp/Pt.rel.UPF
     MD5 check sum: 5554f0f06d78f1ca51ad76ba2c277092
     Pseudo is Ultrasoft + core correction, Zval = 10.0
     Generated using "atomic" code by A. Dal Corso  v.5.0.2 svn rev. 9415
     Using radial grid of 1277 points, 10 beta functions with: 
                l(1) =   0
                l(2) =   0
                l(3) =   1
                l(4) =   1
                l(5) =   1
                l(6) =   1
                l(7) =   2
                l(8) =   2
                l(9) =   2
               l(10) =   2
     Q(r) pseudized with 0 coefficients 


     PseudoPot. # 2 for Se read from file:
     /opt/project/dorye_projects/brazil_kpm/lda_pp/Se.rel.UPF
     MD5 check sum: bcfdccfb16ea464e2edc480fd9c7e735
     Pseudo is Ultrasoft + core correction, Zval =  6.0
     Generated using "atomic" code by A. Dal Corso  v.5.0.2 svn rev. 9415
     Using radial grid of 1211 points,  6 beta functions with: 
                l(1) =   0
                l(2) =   0
                l(3) =   1
                l(4) =   1
                l(5) =   1
                l(6) =   1
     Q(r) pseudized with 0 coefficients 


     atomic species   valence    mass     pseudopotential
        Pt            10.00   195.08000     Pt( 1.00)
        Se             6.00    78.97100     Se( 1.00)

      6 Sym. Ops. (no inversion) found


                                    s                        frac. trans.

      isym =  1     identity                                     

 cryst.   s( 1) = (     1          0          0      )
                  (     0          1          0      )
                  (     0          0          1      )

 cart.    s( 1) = (  1.0000000  0.0000000  0.0000000 )
                  (  0.0000000  1.0000000  0.0000000 )
                  (  0.0000000  0.0000000  1.0000000 )


      isym =  2     120 deg rotation - cryst. axis [0,0,1]       

 cryst.   s( 2) = (     0          1          0      )
                  (    -1         -1          0      )
                  (     0          0          1      )

 cart.    s( 2) = ( -0.5000000 -0.8660254  0.0000000 )
                  (  0.8660254 -0.5000000  0.0000000 )
                  (  0.0000000  0.0000000  1.0000000 )


      isym =  3     120 deg rotation - cryst. axis [0,0,-1]      

 cryst.   s( 3) = (    -1         -1          0      )
                  (     1          0          0      )
                  (     0          0          1      )

 cart.    s( 3) = ( -0.5000000  0.8660254  0.0000000 )
                  ( -0.8660254 -0.5000000  0.0000000 )
                  (  0.0000000  0.0000000  1.0000000 )


      isym =  4     inv. 180 deg rotation - cart. axis [1,0,0]   

 cryst.   s( 4) = (    -1          0          0      )
                  (     1          1          0      )
                  (     0          0          1      )

 cart.    s( 4) = ( -1.0000000  0.0000000  0.0000000 )
                  (  0.0000000  1.0000000  0.0000000 )
                  (  0.0000000  0.0000000  1.0000000 )


      isym =  5     inv. 180 deg rotation - cryst. axis [0,1,0]  

 cryst.   s( 5) = (     1          1          0      )
                  (     0         -1          0      )
                  (     0          0          1      )

 cart.    s( 5) = (  0.5000000  0.8660254  0.0000000 )
                  (  0.8660254 -0.5000000  0.0000000 )
                  (  0.0000000  0.0000000  1.0000000 )


      isym =  6     inv. 180 deg rotation - cryst. axis [1,1,0]  

 cryst.   s( 6) = (     0         -1          0      )
                  (    -1          0          0      )
                  (     0          0          1      )

 cart.    s( 6) = (  0.5000000 -0.8660254  0.0000000 )
                  ( -0.8660254 -0.5000000  0.0000000 )
                  (  0.0000000  0.0000000  1.0000000 )


   Cartesian axes

     site n.     atom                  positions (alat units)
         1           Pt  tau(   1) = (   0.0000000   0.0000000   1.3635632  )
         2           Se  tau(   2) = (  -0.0000005   0.5773506   1.7112718  )
         3           Se  tau(   3) = (   0.5000005   0.2886748   1.0158546  )

   Crystallographic axes

     site n.     atom                  positions (cryst. coord.)
         1           Pt  tau(   1) = (  0.0000000  0.0000000  0.1694000  )
         2           Se  tau(   2) = (  0.3333330  0.6666670  0.2125970  )
         3           Se  tau(   3) = (  0.6666670  0.3333330  0.1262030  )

     number of k points=    42  Marzari-Vanderbilt smearing, width (Ry)=  0.0030
                       cart. coord. in units 2pi/alat
        k(    1) = (   0.0416667   0.0721688  -0.0621167), wk =   0.0138889
        k(    2) = (   0.0416667   0.1683938  -0.0621167), wk =   0.0277778
        k(    3) = (   0.0416667   0.2646189  -0.0621167), wk =   0.0277778
        k(    4) = (   0.0416667   0.3608439  -0.0621167), wk =   0.0277778
        k(    5) = (   0.0416667   0.4570690  -0.0621167), wk =   0.0277778
        k(    6) = (   0.0416667   0.5532940  -0.0621167), wk =   0.0277778
        k(    7) = (   0.0416667  -0.5051815  -0.0621167), wk =   0.0277778
        k(    8) = (   0.0416667  -0.4089564  -0.0621167), wk =   0.0277778
        k(    9) = (   0.0416667  -0.3127314  -0.0621167), wk =   0.0277778
        k(   10) = (   0.0416667  -0.2165064  -0.0621167), wk =   0.0277778
        k(   11) = (   0.0416667  -0.1202813  -0.0621167), wk =   0.0277778
        k(   12) = (   0.0416667  -0.0240563  -0.0621167), wk =   0.0138889
        k(   13) = (   0.1250000   0.2165064  -0.0621167), wk =   0.0138889
        k(   14) = (   0.1250000   0.3127314  -0.0621167), wk =   0.0277778
        k(   15) = (   0.1250000   0.4089564  -0.0621167), wk =   0.0277778
        k(   16) = (   0.1250000   0.5051815  -0.0621167), wk =   0.0277778
        k(   17) = (   0.1250000   0.6014065  -0.0621167), wk =   0.0277778
        k(   18) = (   0.1250000  -0.4570690  -0.0621167), wk =   0.0277778
        k(   19) = (   0.1250000  -0.3608439  -0.0621167), wk =   0.0277778
        k(   20) = (   0.1250000  -0.2646189  -0.0621167), wk =   0.0277778
        k(   21) = (   0.1250000  -0.1683938  -0.0621167), wk =   0.0277778
        k(   22) = (   0.1250000  -0.0721688  -0.0621167), wk =   0.0138889
        k(   23) = (   0.2083333   0.3608439  -0.0621167), wk =   0.0138889
        k(   24) = (   0.2083333   0.4570690  -0.0621167), wk =   0.0277778
        k(   25) = (   0.2083333   0.5532940  -0.0621167), wk =   0.0277778
        k(   26) = (   0.2083333   0.6495191  -0.0621167), wk =   0.0277778
        k(   27) = (   0.2083333  -0.4089564  -0.0621167), wk =   0.0277778
        k(   28) = (   0.2083333  -0.3127314  -0.0621167), wk =   0.0277778
        k(   29) = (   0.2083333  -0.2165064  -0.0621167), wk =   0.0277778
        k(   30) = (   0.2083333  -0.1202813  -0.0621167), wk =   0.0138889
        k(   31) = (   0.2916667   0.5051815  -0.0621167), wk =   0.0138889
        k(   32) = (   0.2916667   0.6014065  -0.0621167), wk =   0.0277778
        k(   33) = (   0.2916667   0.6976316  -0.0621167), wk =   0.0277778
        k(   34) = (   0.2916667  -0.3608439  -0.0621167), wk =   0.0277778
        k(   35) = (   0.2916667  -0.2646189  -0.0621167), wk =   0.0277778
        k(   36) = (   0.2916667  -0.1683938  -0.0621167), wk =   0.0138889
        k(   37) = (   0.3750000   0.6495191  -0.0621167), wk =   0.0138889
        k(   38) = (   0.3750000   0.7457441  -0.0621167), wk =   0.0277778
        k(   39) = (   0.3750000  -0.3127314  -0.0621167), wk =   0.0277778
        k(   40) = (   0.3750000  -0.2165064  -0.0621167), wk =   0.0138889
        k(   41) = (   0.4583333   0.7938566  -0.0621167), wk =   0.0138889
        k(   42) = (   0.4583333  -0.2646189  -0.0621167), wk =   0.0138889

                       cryst. coord.
        k(    1) = (   0.0416667   0.0416667  -0.5000000), wk =   0.0138889
        k(    2) = (   0.0416667   0.1250000  -0.5000000), wk =   0.0277778
        k(    3) = (   0.0416667   0.2083333  -0.5000000), wk =   0.0277778
        k(    4) = (   0.0416667   0.2916667  -0.5000000), wk =   0.0277778
        k(    5) = (   0.0416667   0.3750000  -0.5000000), wk =   0.0277778
        k(    6) = (   0.0416667   0.4583333  -0.5000000), wk =   0.0277778
        k(    7) = (   0.0416667  -0.4583333  -0.5000000), wk =   0.0277778
        k(    8) = (   0.0416667  -0.3750000  -0.5000000), wk =   0.0277778
        k(    9) = (   0.0416667  -0.2916667  -0.5000000), wk =   0.0277778
        k(   10) = (   0.0416667  -0.2083333  -0.5000000), wk =   0.0277778
        k(   11) = (   0.0416667  -0.1250000  -0.5000000), wk =   0.0277778
        k(   12) = (   0.0416667  -0.0416667  -0.5000000), wk =   0.0138889
        k(   13) = (   0.1250000   0.1250000  -0.5000000), wk =   0.0138889
        k(   14) = (   0.1250000   0.2083333  -0.5000000), wk =   0.0277778
        k(   15) = (   0.1250000   0.2916667  -0.5000000), wk =   0.0277778
        k(   16) = (   0.1250000   0.3750000  -0.5000000), wk =   0.0277778
        k(   17) = (   0.1250000   0.4583333  -0.5000000), wk =   0.0277778
        k(   18) = (   0.1250000  -0.4583333  -0.5000000), wk =   0.0277778
        k(   19) = (   0.1250000  -0.3750000  -0.5000000), wk =   0.0277778
        k(   20) = (   0.1250000  -0.2916667  -0.5000000), wk =   0.0277778
        k(   21) = (   0.1250000  -0.2083333  -0.5000000), wk =   0.0277778
        k(   22) = (   0.1250000  -0.1250000  -0.5000000), wk =   0.0138889
        k(   23) = (   0.2083333   0.2083333  -0.5000000), wk =   0.0138889
        k(   24) = (   0.2083333   0.2916667  -0.5000000), wk =   0.0277778
        k(   25) = (   0.2083333   0.3750000  -0.5000000), wk =   0.0277778
        k(   26) = (   0.2083333   0.4583333  -0.5000000), wk =   0.0277778
        k(   27) = (   0.2083333  -0.4583333  -0.5000000), wk =   0.0277778
        k(   28) = (   0.2083333  -0.3750000  -0.5000000), wk =   0.0277778
        k(   29) = (   0.2083333  -0.2916667  -0.5000000), wk =   0.0277778
        k(   30) = (   0.2083333  -0.2083333  -0.5000000), wk =   0.0138889
        k(   31) = (   0.2916667   0.2916667  -0.5000000), wk =   0.0138889
        k(   32) = (   0.2916667   0.3750000  -0.5000000), wk =   0.0277778
        k(   33) = (   0.2916667   0.4583333  -0.5000000), wk =   0.0277778
        k(   34) = (   0.2916667  -0.4583333  -0.5000000), wk =   0.0277778
        k(   35) = (   0.2916667  -0.3750000  -0.5000000), wk =   0.0277778
        k(   36) = (   0.2916667  -0.2916667  -0.5000000), wk =   0.0138889
        k(   37) = (   0.3750000   0.3750000  -0.5000000), wk =   0.0138889
        k(   38) = (   0.3750000   0.4583333  -0.5000000), wk =   0.0277778
        k(   39) = (   0.3750000  -0.4583333  -0.5000000), wk =   0.0277778
        k(   40) = (   0.3750000  -0.3750000  -0.5000000), wk =   0.0138889
        k(   41) = (   0.4583333   0.4583333  -0.5000000), wk =   0.0138889
        k(   42) = (   0.4583333  -0.4583333  -0.5000000), wk =   0.0138889

     Dense  grid:  1709389 G-vectors     FFT dimensions: (  80,  80, 625)

     Smooth grid:   432857 G-vectors     FFT dimensions: (  50,  50, 400)

     Dynamical RAM for                 wfc:       4.95 MB

     Dynamical RAM for     wfc (w. buffer):     212.82 MB

     Dynamical RAM for           str. fact:       5.22 MB

     Dynamical RAM for           local pot:       0.00 MB

     Dynamical RAM for          nlocal pot:       5.11 MB

     Dynamical RAM for                qrad:      14.55 MB

     Dynamical RAM for          rho,v,vnew:      68.21 MB

     Dynamical RAM for               rhoin:      22.74 MB

     Dynamical RAM for            rho*nmix:     166.92 MB

     Dynamical RAM for           G-vectors:      10.11 MB

     Dynamical RAM for          h,s,v(r/c):       0.16 MB

     Dynamical RAM for          <psi|beta>:       0.06 MB

     Dynamical RAM for                 psi:       9.90 MB

     Dynamical RAM for                hpsi:       9.90 MB

     Dynamical RAM for                spsi:       9.90 MB

     Dynamical RAM for      wfcinit/wfcrot:       8.44 MB

     Dynamical RAM for           addusdens:    1596.22 MB

     Estimated static dynamical RAM per process >     371.20 MB

     Estimated max dynamical RAM per process >       2.08 GB

     Estimated total dynamical RAM >      20.84 GB

     Initial potential from superposition of free atoms

     starting charge      21.9997, renormalised to      22.0000

     negative rho (up, down):  1.454E-04 0.000E+00
     Starting wfcs are   34 randomized atomic wfcs

     total cpu time spent up to now is       22.0 secs

     per-process dynamical memory:   402.1 Mb

     Self-consistent Calculation

     iteration #  1     ecut=   120.00 Ry     beta= 0.10
     Davidson diagonalization with overlap

---- Real-time Memory Report at c_bands before calling an iterative solver
          1758 MiB given to the printing process from OS
           411 MiB allocation reported by mallinfo(arena+hblkhd)
         70375 MiB available memory on the node where the printing process lives
------------------
     ethr =  1.00E-02,  avg # of iterations =  4.8

     negative rho (up, down):  9.725E-05 0.000E+00

     total cpu time spent up to now is       75.5 secs

     total energy              =    -127.78461878 Ry
     estimated scf accuracy    <       0.26426080 Ry

     iteration #  2     ecut=   120.00 Ry     beta= 0.10
     Davidson diagonalization with overlap

---- Real-time Memory Report at c_bands before calling an iterative solver
          2020 MiB given to the printing process from OS
           464 MiB allocation reported by mallinfo(arena+hblkhd)
         69815 MiB available memory on the node where the printing process lives
------------------
     ethr =  1.20E-03,  avg # of iterations =  1.1

     negative rho (up, down):  7.558E-05 0.000E+00

     total cpu time spent up to now is      120.7 secs

     total energy              =    -127.76963921 Ry
     estimated scf accuracy    <       0.10847024 Ry

     iteration #  3     ecut=   120.00 Ry     beta= 0.10
     Davidson diagonalization with overlap

---- Real-time Memory Report at c_bands before calling an iterative solver
          2025 MiB given to the printing process from OS
           469 MiB allocation reported by mallinfo(arena+hblkhd)
         68645 MiB available memory on the node where the printing process lives
------------------
     ethr =  4.93E-04,  avg # of iterations =  1.9

     negative rho (up, down):  7.050E-05 0.000E+00

     total cpu time spent up to now is      169.3 secs

     total energy              =    -127.77970946 Ry
     estimated scf accuracy    <       0.02206776 Ry

     iteration #  4     ecut=   120.00 Ry     beta= 0.10
     Davidson diagonalization with overlap

---- Real-time Memory Report at c_bands before calling an iterative solver
          2030 MiB given to the printing process from OS
           475 MiB allocation reported by mallinfo(arena+hblkhd)
         68601 MiB available memory on the node where the printing process lives
------------------
     ethr =  1.00E-04,  avg # of iterations =  4.4

     negative rho (up, down):  7.816E-05 0.000E+00

     total cpu time spent up to now is      221.5 secs

     total energy              =    -127.77715628 Ry
     estimated scf accuracy    <       0.01070850 Ry

     iteration #  5     ecut=   120.00 Ry     beta= 0.10
     Davidson diagonalization with overlap

---- Real-time Memory Report at c_bands before calling an iterative solver
          2036 MiB given to the printing process from OS
           480 MiB allocation reported by mallinfo(arena+hblkhd)
         68550 MiB available memory on the node where the printing process lives
------------------
     ethr =  4.87E-05,  avg # of iterations =  4.7

     negative rho (up, down):  7.070E-05 0.000E+00

     total cpu time spent up to now is      283.2 secs

     total energy              =    -127.77866188 Ry
     estimated scf accuracy    <       0.00319765 Ry

     iteration #  6     ecut=   120.00 Ry     beta= 0.10
     Davidson diagonalization with overlap

---- Real-time Memory Report at c_bands before calling an iterative solver
          2041 MiB given to the printing process from OS
           485 MiB allocation reported by mallinfo(arena+hblkhd)
         68483 MiB available memory on the node where the printing process lives
------------------
     ethr =  1.45E-05,  avg # of iterations =  4.1

     negative rho (up, down):  7.057E-05 0.000E+00

     total cpu time spent up to now is      344.2 secs

     total energy              =    -127.77844530 Ry
     estimated scf accuracy    <       0.00634975 Ry

     iteration #  7     ecut=   120.00 Ry     beta= 0.10
     Davidson diagonalization with overlap

---- Real-time Memory Report at c_bands before calling an iterative solver
          2046 MiB given to the printing process from OS
           490 MiB allocation reported by mallinfo(arena+hblkhd)
         66270 MiB available memory on the node where the printing process lives
------------------
     ethr =  1.45E-05,  avg # of iterations =  1.6

     negative rho (up, down):  6.351E-05 0.000E+00

     total cpu time spent up to now is      392.1 secs

     total energy              =    -127.77903080 Ry
     estimated scf accuracy    <       0.00043171 Ry

     iteration #  8     ecut=   120.00 Ry     beta= 0.10
     Davidson diagonalization with overlap

---- Real-time Memory Report at c_bands before calling an iterative solver
          2052 MiB given to the printing process from OS
           496 MiB allocation reported by mallinfo(arena+hblkhd)
         67974 MiB available memory on the node where the printing process lives
------------------
     ethr =  1.96E-06,  avg # of iterations =  3.9

     negative rho (up, down):  6.162E-05 0.000E+00

     total cpu time spent up to now is      443.2 secs

     total energy              =    -127.77891512 Ry
     estimated scf accuracy    <       0.00032076 Ry

     iteration #  9     ecut=   120.00 Ry     beta= 0.10
     Davidson diagonalization with overlap

---- Real-time Memory Report at c_bands before calling an iterative solver
          2057 MiB given to the printing process from OS
           501 MiB allocation reported by mallinfo(arena+hblkhd)
         66156 MiB available memory on the node where the printing process lives
------------------
     ethr =  1.46E-06,  avg # of iterations =  2.0

     negative rho (up, down):  5.430E-05 0.000E+00

     total cpu time spent up to now is      496.2 secs

     total energy              =    -127.77898376 Ry
     estimated scf accuracy    <       0.00000330 Ry

     iteration # 10     ecut=   120.00 Ry     beta= 0.10
     Davidson diagonalization with overlap

---- Real-time Memory Report at c_bands before calling an iterative solver
          2062 MiB given to the printing process from OS
           506 MiB allocation reported by mallinfo(arena+hblkhd)
         67973 MiB available memory on the node where the printing process lives
------------------
     ethr =  1.50E-08,  avg # of iterations =  4.9

     negative rho (up, down):  4.767E-05 0.000E+00

     total cpu time spent up to now is      569.1 secs

     total energy              =    -127.77898588 Ry
     estimated scf accuracy    <       0.00000466 Ry

     iteration # 11     ecut=   120.00 Ry     beta= 0.10
     Davidson diagonalization with overlap

---- Real-time Memory Report at c_bands before calling an iterative solver
          2062 MiB given to the printing process from OS
           506 MiB allocation reported by mallinfo(arena+hblkhd)
         66027 MiB available memory on the node where the printing process lives
------------------
     ethr =  1.50E-08,  avg # of iterations =  1.9

     negative rho (up, down):  4.381E-05 0.000E+00

     total cpu time spent up to now is      624.8 secs

     total energy              =    -127.77898479 Ry
     estimated scf accuracy    <       0.00000343 Ry

     iteration # 12     ecut=   120.00 Ry     beta= 0.10
     Davidson diagonalization with overlap

---- Real-time Memory Report at c_bands before calling an iterative solver
          2062 MiB given to the printing process from OS
           506 MiB allocation reported by mallinfo(arena+hblkhd)
         66727 MiB available memory on the node where the printing process lives
------------------
     ethr =  1.50E-08,  avg # of iterations =  2.0

     negative rho (up, down):  3.900E-05 0.000E+00

     total cpu time spent up to now is      691.1 secs

     total energy              =    -127.77898558 Ry
     estimated scf accuracy    <       0.00000033 Ry

     iteration # 13     ecut=   120.00 Ry     beta= 0.10
     Davidson diagonalization with overlap

---- Real-time Memory Report at c_bands before calling an iterative solver
          2062 MiB given to the printing process from OS
           506 MiB allocation reported by mallinfo(arena+hblkhd)
         65438 MiB available memory on the node where the printing process lives
------------------
     ethr =  1.51E-09,  avg # of iterations =  1.8

     negative rho (up, down):  6.488E-06 0.000E+00

     total cpu time spent up to now is      754.5 secs

     End of self-consistent calculation

          k = 0.0417 0.0722-0.0621 ( 54156 PWs)   bands (ev):

   -17.5551 -17.5551 -15.7599 -15.7599  -8.9564  -8.9564  -8.7476  -8.7476
    -8.4993  -8.4993  -6.5658  -6.5658  -6.3598  -6.3598  -4.8546  -4.8546
    -4.0910  -4.0910  -3.6175  -3.6175  -3.2858  -3.2858  -0.8899  -0.8899
    -0.5889  -0.5889   1.2361   1.2361   1.9898   1.9898

     occupation numbers 
     1.0000   1.0000   1.0000   1.0000   1.0000   1.0000   1.0000   1.0000
     1.0000   1.0000   1.0000   1.0000   1.0000   1.0000   1.0000   1.0000
     1.0000   1.0000   1.0000   1.0000   1.0000   1.0000   0.0000   0.0000
     0.0000   0.0000   0.0000   0.0000   0.0000   0.0000

          k = 0.0417 0.1684-0.0621 ( 54080 PWs)   bands (ev):

   -17.3742 -17.3742 -15.7778 -15.7778  -8.9163  -8.9163  -8.6509  -8.6509
    -8.3676  -8.3676  -6.8182  -6.8182  -6.5129  -6.5129  -5.3425  -5.3425
    -3.9473  -3.9473  -3.5740  -3.5740  -3.3748  -3.3748  -1.6517  -1.6517
    -0.8416  -0.8416   1.8088   1.8088   2.2862   2.2863

     occupation numbers 
     1.0000   1.0000   1.0000   1.0000   1.0000   1.0000   1.0000   1.0000
     1.0000   1.0000   1.0000   1.0000   1.0000   1.0000   1.0000   1.0000
     1.0000   1.0000   1.0000   1.0000   1.0000   1.0000   0.0000   0.0000
     0.0000   0.0000   0.0000   0.0000   0.0000   0.0000

          k = 0.0417 0.2646-0.0621 ( 54034 PWs)   bands (ev):

   -17.0744 -17.0744 -15.8083 -15.8083  -8.8613  -8.8613  -8.5133  -8.5133
    -8.1606  -8.1606  -7.3526  -7.3526  -6.6031  -6.6031  -5.6981  -5.6981
    -4.1685  -4.1685  -3.7463  -3.7463  -3.4604  -3.4604  -2.0885  -2.0885
    -0.9841  -0.9841   2.1697   2.1698   2.4823   2.4824

     occupation numbers 
     1.0000   1.0000   1.0000   1.0000   1.0000   1.0000   1.0000   1.0000
     1.0000   1.0000   1.0000   1.0000   1.0000   1.0000   1.0000   1.0000
     1.0000   1.0000   1.0000   1.0000   1.0000   1.0000   0.0000   0.0000
     0.0000   0.0000   0.0000   0.0000   0.0000   0.0000

          k = 0.0417 0.3608-0.0621 ( 54046 PWs)   bands (ev):

   -16.7067 -16.7067 -15.8480 -15.8480  -8.9367  -8.9367  -8.3975  -8.3975
    -8.2018  -8.2018  -7.4713  -7.4713  -6.5615  -6.5615  -5.8294  -5.8294
    -4.7610  -4.7610  -4.2905  -4.2905  -3.7520  -3.7520  -1.7979  -1.7979
    -0.9541  -0.9541   1.5905   1.5905   3.0278   3.0278

     occupation numbers 
     1.0000   1.0000   1.0000   1.0000   1.0000   1.0000   1.0000   1.0000
     1.0000   1.0000   1.0000   1.0000   1.0000   1.0000   1.0000   1.0000
     1.0000   1.0000   1.0000   1.0000   1.0000   1.0000   0.0000   0.0000
     0.0000   0.0000   0.0000   0.0000   0.0000   0.0000

          k = 0.0417 0.4571-0.0621 ( 54072 PWs)   bands (ev):

   -16.3562 -16.3562 -15.8942 -15.8942  -9.3794  -9.3794  -8.4044  -8.4044
    -7.9734  -7.9734  -7.2063  -7.2063  -6.4337  -6.4337  -5.8387  -5.8387
    -5.3038  -5.3038  -4.8671  -4.8671  -4.2199  -4.2199  -1.3455  -1.3455
    -0.8646  -0.8646   1.2655   1.2655   2.9598   2.9598

     occupation numbers 
     1.0000   1.0000   1.0000   1.0000   1.0000   1.0000   1.0000   1.0000
     1.0000   1.0000   1.0000   1.0000   1.0000   1.0000   1.0000   1.0000
     1.0000   1.0000   1.0000   1.0000   1.0000   1.0000   0.0000   0.0000
     0.0000   0.0000   0.0000   0.0000   0.0000   0.0000

          k = 0.0417 0.5533-0.0621 ( 54064 PWs)   bands (ev):

   -16.1405 -16.1405 -15.9448 -15.9448  -9.6809  -9.6809  -8.4017  -8.4017
    -7.5726  -7.5726  -7.2752  -7.2752  -6.3513  -6.3513  -5.7673  -5.7673
    -5.5085  -5.5085  -5.0604  -5.0604  -4.7092  -4.7092  -1.0884  -1.0884
    -0.8231  -0.8231   1.1922   1.1922   2.7129   2.7129

     occupation numbers 
     1.0000   1.0000   1.0000   1.0000   1.0000   1.0000   1.0000   1.0000
     1.0000   1.0000   1.0000   1.0000   1.0000   1.0000   1.0000   1.0000
     1.0000   1.0000   1.0000   1.0000   1.0000   1.0000   0.0000   0.0000
     0.0000   0.0000   0.0000   0.0000   0.0000   0.0000

          k = 0.0417-0.5052-0.0621 ( 54078 PWs)   bands (ev):

   -16.2225 -16.2225 -15.9207 -15.9207  -9.5743  -9.5743  -8.4026  -8.4026
    -7.7727  -7.7727  -7.1820  -7.1820  -6.3807  -6.3807  -5.8339  -5.8339
    -5.3846  -5.3846  -5.0754  -5.0754  -4.4810  -4.4810  -1.1802  -1.1802
    -0.8347  -0.8347   1.2087   1.2087   2.8057   2.8057

     occupation numbers 
     1.0000   1.0000   1.0000   1.0000   1.0000   1.0000   1.0000   1.0000
     1.0000   1.0000   1.0000   1.0000   1.0000   1.0000   1.0000   1.0000
     1.0000   1.0000   1.0000   1.0000   1.0000   1.0000   0.0000   0.0000
     0.0000   0.0000   0.0000   0.0000   0.0000   0.0000

          k = 0.0417-0.4090-0.0621 ( 54062 PWs)   bands (ev):

   -16.5226 -16.5226 -15.8702 -15.8702  -9.1388  -9.1388  -8.4025  -8.4025
    -8.1321  -8.1321  -7.3294  -7.3294  -6.4997  -6.4997  -5.8397  -5.8397
    -5.0837  -5.0837  -4.5846  -4.5846  -3.9710  -3.9710  -1.5620  -1.5620
    -0.9086  -0.9086   1.3888   1.3888   3.0887   3.0887

     occupation numbers 
     1.0000   1.0000   1.0000   1.0000   1.0000   1.0000   1.0000   1.0000
     1.0000   1.0000   1.0000   1.0000   1.0000   1.0000   1.0000   1.0000
     1.0000   1.0000   1.0000   1.0000   1.0000   1.0000   0.0000   0.0000
     0.0000   0.0000   0.0000   0.0000   0.0000   0.0000

          k = 0.0417-0.3127-0.0621 ( 54040 PWs)   bands (ev):

   -16.8946 -16.8946 -15.8273 -15.8273  -8.8567  -8.8567  -8.4425  -8.4425
    -8.1445  -8.1445  -7.5211  -7.5211  -6.5994  -6.5994  -5.7860  -5.7860
    -4.4317  -4.4317  -4.0029  -4.0029  -3.5744  -3.5744  -2.0019  -2.0019
    -0.9850  -0.9850   1.8633   1.8633   2.7803   2.7804

     occupation numbers 
     1.0000   1.0000   1.0000   1.0000   1.0000   1.0000   1.0000   1.0000
     1.0000   1.0000   1.0000   1.0000   1.0000   1.0000   1.0000   1.0000
     1.0000   1.0000   1.0000   1.0000   1.0000   1.0000   0.0000   0.0000
     0.0000   0.0000   0.0000   0.0000   0.0000   0.0000

          k = 0.0417-0.2165-0.0621 ( 54060 PWs)   bands (ev):

   -17.2367 -17.2367 -15.7917 -15.7917  -8.8887  -8.8887  -8.5850  -8.5850
    -8.2620  -8.2620  -7.0697  -7.0697  -6.5725  -6.5725  -5.5526  -5.5526
    -4.0038  -4.0038  -3.5802  -3.5802  -3.4254  -3.4254  -1.9652  -1.9652
    -0.9371  -0.9371   2.1273   2.1273   2.4143   2.4143

     occupation numbers 
     1.0000   1.0000   1.0000   1.0000   1.0000   1.0000   1.0000   1.0000
     1.0000   1.0000   1.0000   1.0000   1.0000   1.0000   1.0000   1.0000
     1.0000   1.0000   1.0000   1.0000   1.0000   1.0000   0.0000   0.0000
     0.0000   0.0000   0.0000   0.0000   0.0000   0.0000

          k = 0.0417-0.1203-0.0621 ( 54100 PWs)   bands (ev):

   -17.4816 -17.4816 -15.7671 -15.7671  -8.9393  -8.9393  -8.7065  -8.7065
    -8.4488  -8.4488  -6.6536  -6.6536  -6.4337  -6.4337  -5.0900  -5.0900
    -3.9972  -3.9972  -3.6051  -3.6051  -3.3204  -3.3204  -1.2584  -1.2584
    -0.7138  -0.7138   1.4962   1.4962   2.1341   2.1341

     occupation numbers 
     1.0000   1.0000   1.0000   1.0000   1.0000   1.0000   1.0000   1.0000
     1.0000   1.0000   1.0000   1.0000   1.0000   1.0000   1.0000   1.0000
     1.0000   1.0000   1.0000   1.0000   1.0000   1.0000   0.0000   0.0000
     0.0000   0.0000   0.0000   0.0000   0.0000   0.0000

          k = 0.0417-0.0241-0.0621 ( 54184 PWs)   bands (ev):

   -17.5924 -17.5924 -15.7562 -15.7562  -8.9658  -8.9658  -8.7698  -8.7698
    -8.5223  -8.5223  -6.5273  -6.5273  -6.3178  -6.3178  -4.7081  -4.7081
    -4.1583  -4.1583  -3.6244  -3.6244  -3.2669  -3.2669  -0.6503  -0.6503
    -0.5142  -0.5142   1.0864   1.0864   1.8542   1.8542

     occupation numbers 
     1.0000   1.0000   1.0000   1.0000   1.0000   1.0000   1.0000   1.0000
     1.0000   1.0000   1.0000   1.0000   1.0000   1.0000   1.0000   1.0000
     1.0000   1.0000   1.0000   1.0000   1.0000   1.0000   0.0000   0.0000
     0.0000   0.0000   0.0000   0.0000   0.0000   0.0000

          k = 0.1250 0.2165-0.0621 ( 54050 PWs)   bands (ev):

   -17.1376 -17.1376 -15.8016 -15.8016  -8.8568  -8.8568  -8.5554  -8.5554
    -8.1903  -8.1903  -7.1416  -7.1416  -6.7339  -6.7339  -5.6596  -5.6596
    -4.0828  -4.0828  -3.6835  -3.6835  -3.4150  -3.4150  -1.8261  -1.8261
    -1.3446  -1.3446   2.3606   2.3606   2.5714   2.5714

     occupation numbers 
     1.0000   1.0000   1.0000   1.0000   1.0000   1.0000   1.0000   1.0000
     1.0000   1.0000   1.0000   1.0000   1.0000   1.0000   1.0000   1.0000
     1.0000   1.0000   1.0000   1.0000   1.0000   1.0000   0.0000   0.0000
     0.0000   0.0000   0.0000   0.0000   0.0000   0.0000

          k = 0.1250 0.3127-0.0621 ( 54076 PWs)   bands (ev):

   -16.8084 -16.8084 -15.8352 -15.8352  -8.7969  -8.7969  -8.4948  -8.4948
    -8.0555  -8.0555  -7.5058  -7.5058  -6.8511  -6.8511  -5.8015  -5.8015
    -4.5253  -4.5253  -4.1592  -4.1592  -3.4748  -3.4748  -1.8246  -1.8246
    -1.4466  -1.4466   2.4149   2.4149   2.9902   2.9902

     occupation numbers 
     1.0000   1.0000   1.0000   1.0000   1.0000   1.0000   1.0000   1.0000
     1.0000   1.0000   1.0000   1.0000   1.0000   1.0000   1.0000   1.0000
     1.0000   1.0000   1.0000   1.0000   1.0000   1.0000   0.0000   0.0000
     0.0000   0.0000   0.0000   0.0000   0.0000   0.0000

          k = 0.1250 0.4090-0.0621 ( 54056 PWs)   bands (ev):

   -16.4535 -16.4535 -15.8744 -15.8744  -9.0436  -9.0436  -8.4911  -8.4911
    -8.0115  -8.0115  -7.3579  -7.3579  -6.8339  -6.8339  -5.8168  -5.8168
    -5.0919  -5.0919  -4.7071  -4.7071  -3.7994  -3.7994  -1.6689  -1.6689
    -1.2160  -1.2160   1.9154   1.9154   3.3870   3.3870

     occupation numbers 
     1.0000   1.0000   1.0000   1.0000   1.0000   1.0000   1.0000   1.0000
     1.0000   1.0000   1.0000   1.0000   1.0000   1.0000   1.0000   1.0000
     1.0000   1.0000   1.0000   1.0000   1.0000   1.0000   0.0000   0.0000
     0.0000   0.0000   0.0000   0.0000   0.0000   0.0000

          k = 0.1250 0.5052-0.0621 ( 54098 PWs)   bands (ev):

   -16.1705 -16.1705 -15.9195 -15.9195  -9.4446  -9.4446  -8.4693  -8.4693
    -7.7351  -7.7351  -7.1462  -7.1462  -6.8092  -6.8092  -5.9275  -5.9275
    -5.4922  -5.4922  -4.9058  -4.9058  -4.2505  -4.2505  -1.4190  -1.4190
    -1.1154  -1.1154   1.6638   1.6638   3.4275   3.4275

     occupation numbers 
     1.0000   1.0000   1.0000   1.0000   1.0000   1.0000   1.0000   1.0000
     1.0000   1.0000   1.0000   1.0000   1.0000   1.0000   1.0000   1.0000
     1.0000   1.0000   1.0000   1.0000   1.0000   1.0000   0.0000   0.0000
     0.0000   0.0000   0.0000   0.0000   0.0000   0.0000

          k = 0.1250 0.6014-0.0621 ( 54080 PWs)   bands (ev):

   -16.0926 -16.0926 -15.9425 -15.9425  -9.5431  -9.5431  -8.4670  -8.4670
    -7.5976  -7.5976  -7.1675  -7.1675  -6.7781  -6.7781  -5.9743  -5.9743
    -5.6184  -5.6184  -4.8011  -4.8011  -4.4560  -4.4560  -1.3238  -1.3238
    -1.1356  -1.1356   1.6271   1.6271   3.3875   3.3875

     occupation numbers 
     1.0000   1.0000   1.0000   1.0000   1.0000   1.0000   1.0000   1.0000
     1.0000   1.0000   1.0000   1.0000   1.0000   1.0000   1.0000   1.0000
     1.0000   1.0000   1.0000   1.0000   1.0000   1.0000   0.0000   0.0000
     0.0000   0.0000   0.0000   0.0000   0.0000   0.0000

          k = 0.1250-0.4571-0.0621 ( 54092 PWs)   bands (ev):

   -16.2962 -16.2962 -15.8958 -15.8958  -9.2650  -9.2650  -8.4768  -8.4768
    -7.8923  -7.8923  -7.2222  -7.2222  -6.8231  -6.8231  -5.8517  -5.8517
    -5.3153  -5.3153  -4.8878  -4.8878  -4.0184  -4.0184  -1.5437  -1.5437
    -1.1381  -1.1381   1.7547   1.7547   3.4558   3.4561

     occupation numbers 
     1.0000   1.0000   1.0000   1.0000   1.0000   1.0000   1.0000   1.0000
     1.0000   1.0000   1.0000   1.0000   1.0000   1.0000   1.0000   1.0000
     1.0000   1.0000   1.0000   1.0000   1.0000   1.0000   0.0000   0.0000
     0.0000   0.0000   0.0000   0.0000   0.0000   0.0000

          k = 0.1250-0.3608-0.0621 ( 54058 PWs)   bands (ev):

   -16.6287 -16.6287 -15.8543 -15.8543  -8.8587  -8.8587  -8.5001  -8.5001
    -8.0612  -8.0612  -7.4807  -7.4807  -6.8496  -6.8496  -5.8152  -5.8152
    -4.8131  -4.8131  -4.4429  -4.4429  -3.6118  -3.6118  -1.7716  -1.7716
    -1.3320  -1.3320   2.1442   2.1442   3.2198   3.2198

     occupation numbers 
     1.0000   1.0000   1.0000   1.0000   1.0000   1.0000   1.0000   1.0000
     1.0000   1.0000   1.0000   1.0000   1.0000   1.0000   1.0000   1.0000
     1.0000   1.0000   1.0000   1.0000   1.0000   1.0000   0.0000   0.0000
     0.0000   0.0000   0.0000   0.0000   0.0000   0.0000

          k = 0.1250-0.2646-0.0621 ( 54046 PWs)   bands (ev):

   -16.9812 -16.9812 -15.8175 -15.8175  -8.8182  -8.8182  -8.5131  -8.5131
    -8.0973  -8.0973  -7.3603  -7.3603  -6.8168  -6.8168  -5.7533  -5.7533
    -4.2721  -4.2721  -3.8958  -3.8958  -3.4100  -3.4100  -1.8273  -1.8273
    -1.4821  -1.4821   2.6196   2.6196   2.6978   2.6980

     occupation numbers 
     1.0000   1.0000   1.0000   1.0000   1.0000   1.0000   1.0000   1.0000
     1.0000   1.0000   1.0000   1.0000   1.0000   1.0000   1.0000   1.0000
     1.0000   1.0000   1.0000   1.0000   1.0000   1.0000   0.0000   0.0000
     0.0000   0.0000   0.0000   0.0000   0.0000   0.0000

          k = 0.1250-0.1684-0.0621 ( 54080 PWs)   bands (ev):

   -17.2704 -17.2704 -15.7882 -15.7882  -8.8911  -8.8911  -8.6049  -8.6049
    -8.2876  -8.2876  -6.9565  -6.9565  -6.6164  -6.6164  -5.5165  -5.5165
    -3.9742  -3.9742  -3.5695  -3.5695  -3.4240  -3.4240  -1.7839  -1.7839
    -1.0885  -1.0885   2.0715   2.0715   2.4163   2.4164

     occupation numbers 
     1.0000   1.0000   1.0000   1.0000   1.0000   1.0000   1.0000   1.0000
     1.0000   1.0000   1.0000   1.0000   1.0000   1.0000   1.0000   1.0000
     1.0000   1.0000   1.0000   1.0000   1.0000   1.0000   0.0000   0.0000
     0.0000   0.0000   0.0000   0.0000   0.0000   0.0000

          k = 0.1250-0.0722-0.0621 ( 54132 PWs)   bands (ev):

   -17.4454 -17.4454 -15.7707 -15.7707  -8.9320  -8.9320  -8.6866  -8.6866
    -8.4220  -8.4220  -6.7148  -6.7148  -6.4539  -6.4539  -5.1838  -5.1838
    -3.9713  -3.9713  -3.5936  -3.5936  -3.3371  -3.3371  -1.4472  -1.4472
    -0.7104  -0.7104   1.6048   1.6048   2.1881   2.1881

     occupation numbers 
     1.0000   1.0000   1.0000   1.0000   1.0000   1.0000   1.0000   1.0000
     1.0000   1.0000   1.0000   1.0000   1.0000   1.0000   1.0000   1.0000
     1.0000   1.0000   1.0000   1.0000   1.0000   1.0000   0.0000   0.0000
     0.0000   0.0000   0.0000   0.0000   0.0000   0.0000

          k = 0.2083 0.3608-0.0621 ( 54092 PWs)   bands (ev):

   -16.4889 -16.4889 -15.8671 -15.8671  -8.8292  -8.8292  -8.5444  -8.5444
    -7.9800  -7.9800  -7.5273  -7.5273  -7.0233  -7.0233  -5.7954  -5.7954
    -4.9504  -4.9504  -4.6721  -4.6721  -3.5916  -3.5916  -1.9163  -1.9163
    -1.3423  -1.3423   2.6092   2.6092   3.0781   3.0782

     occupation numbers 
     1.0000   1.0000   1.0000   1.0000   1.0000   1.0000   1.0000   1.0000
     1.0000   1.0000   1.0000   1.0000   1.0000   1.0000   1.0000   1.0000
     1.0000   1.0000   1.0000   1.0000   1.0000   1.0000   0.0000   0.0000
     0.0000   0.0000   0.0000   0.0000   0.0000   0.0000

          k = 0.2083 0.4571-0.0621 ( 54044 PWs)   bands (ev):

   -16.1955 -16.1955 -15.8993 -15.8993  -9.0954  -9.0954  -8.5243  -8.5243
    -7.9368  -7.9368  -7.3917  -7.3917  -7.0110  -7.0110  -5.8562  -5.8562
    -5.3812  -5.3812  -4.8945  -4.8945  -3.9076  -3.9076  -1.8782  -1.8782
    -1.2292  -1.2292   2.3755   2.3755   3.4937   3.4937

     occupation numbers 
     1.0000   1.0000   1.0000   1.0000   1.0000   1.0000   1.0000   1.0000
     1.0000   1.0000   1.0000   1.0000   1.0000   1.0000   1.0000   1.0000
     1.0000   1.0000   1.0000   1.0000   1.0000   1.0000   0.0000   0.0000
     0.0000   0.0000   0.0000   0.0000   0.0000   0.0000

          k = 0.2083 0.5533-0.0621 ( 54038 PWs)   bands (ev):

   -16.0215 -16.0215 -15.9344 -15.9344  -9.2848  -9.2848  -8.5371  -8.5371
    -7.8438  -7.8438  -7.2817  -7.2817  -6.9547  -6.9547  -6.0003  -6.0003
    -5.6993  -5.6993  -4.6659  -4.6659  -4.2748  -4.2748  -1.7173  -1.7173
    -1.3129  -1.3129   2.2404   2.2404   4.0184   4.0184

     occupation numbers 
     1.0000   1.0000   1.0000   1.0000   1.0000   1.0000   1.0000   1.0000
     1.0000   1.0000   1.0000   1.0000   1.0000   1.0000   1.0000   1.0000
     1.0000   1.0000   1.0000   1.0000   1.0000   1.0000   0.0000   0.0000
     0.0000   0.0000   0.0000   0.0000   0.0000   0.0000

          k = 0.2083 0.6495-0.0621 ( 54048 PWs)   bands (ev):

   -16.0880 -16.0880 -15.9164 -15.9164  -9.2165  -9.2165  -8.5302  -8.5302
    -7.8848  -7.8848  -7.3195  -7.3195  -6.9811  -6.9811  -5.9412  -5.9412
    -5.5801  -5.5801  -4.7993  -4.7993  -4.1034  -4.1034  -1.7922  -1.7922
    -1.2626  -1.2626   2.2841   2.2841   3.7720   3.7720

     occupation numbers 
     1.0000   1.0000   1.0000   1.0000   1.0000   1.0000   1.0000   1.0000
     1.0000   1.0000   1.0000   1.0000   1.0000   1.0000   1.0000   1.0000
     1.0000   1.0000   1.0000   1.0000   1.0000   1.0000   0.0000   0.0000
     0.0000   0.0000   0.0000   0.0000   0.0000   0.0000

          k = 0.2083-0.4090-0.0621 ( 54062 PWs)   bands (ev):

   -16.3330 -16.3330 -15.8832 -15.8832  -8.9518  -8.9518  -8.5308  -8.5308
    -7.9674  -7.9674  -7.4741  -7.4741  -7.0294  -7.0294  -5.8005  -5.8005
    -5.1571  -5.1571  -4.8616  -4.8616  -3.7296  -3.7296  -1.9300  -1.9300
    -1.2533  -1.2533   2.5052   2.5052   3.2462   3.2463

     occupation numbers 
     1.0000   1.0000   1.0000   1.0000   1.0000   1.0000   1.0000   1.0000
     1.0000   1.0000   1.0000   1.0000   1.0000   1.0000   1.0000   1.0000
     1.0000   1.0000   1.0000   1.0000   1.0000   1.0000   0.0000   0.0000
     0.0000   0.0000   0.0000   0.0000   0.0000   0.0000

          k = 0.2083-0.3127-0.0621 ( 54098 PWs)   bands (ev):

   -16.6510 -16.6510 -15.8509 -15.8509  -8.7793  -8.7793  -8.5294  -8.5294
    -8.0086  -8.0086  -7.5313  -7.5313  -6.9679  -6.9679  -5.8070  -5.8070
    -4.7412  -4.7412  -4.4142  -4.4142  -3.5079  -3.5079  -1.8334  -1.8334
    -1.4629  -1.4629   2.5637   2.5637   3.0468   3.0470

     occupation numbers 
     1.0000   1.0000   1.0000   1.0000   1.0000   1.0000   1.0000   1.0000
     1.0000   1.0000   1.0000   1.0000   1.0000   1.0000   1.0000   1.0000
     1.0000   1.0000   1.0000   1.0000   1.0000   1.0000   0.0000   0.0000
     0.0000   0.0000   0.0000   0.0000   0.0000   0.0000

          k = 0.2083-0.2165-0.0621 ( 54032 PWs)   bands (ev):

   -16.9519 -16.9519 -15.8208 -15.8208  -8.8318  -8.8318  -8.4882  -8.4882
    -8.1062  -8.1062  -7.4514  -7.4514  -6.7110  -6.7110  -5.7647  -5.7647
    -4.3256  -4.3256  -3.9316  -3.9316  -3.4685  -3.4685  -1.9676  -1.9676
    -1.2191  -1.2191   2.2627   2.2627   2.7136   2.7136

     occupation numbers 
     1.0000   1.0000   1.0000   1.0000   1.0000   1.0000   1.0000   1.0000
     1.0000   1.0000   1.0000   1.0000   1.0000   1.0000   1.0000   1.0000
     1.0000   1.0000   1.0000   1.0000   1.0000   1.0000   0.0000   0.0000
     0.0000   0.0000   0.0000   0.0000   0.0000   0.0000

          k = 0.2083-0.1203-0.0621 ( 54040 PWs)   bands (ev):

   -17.1706 -17.1706 -15.7985 -15.7985  -8.8800  -8.8800  -8.5509  -8.5509
    -8.2162  -8.2162  -7.2166  -7.2166  -6.5575  -6.5575  -5.6190  -5.6190
    -4.0647  -4.0647  -3.6290  -3.6290  -3.4392  -3.4392  -2.0967  -2.0967
    -0.8728  -0.8728   2.1797   2.1797   2.3403   2.3403

     occupation numbers 
     1.0000   1.0000   1.0000   1.0000   1.0000   1.0000   1.0000   1.0000
     1.0000   1.0000   1.0000   1.0000   1.0000   1.0000   1.0000   1.0000
     1.0000   1.0000   1.0000   1.0000   1.0000   1.0000   0.0000   0.0000
     0.0000   0.0000   0.0000   0.0000   0.0000   0.0000

          k = 0.2917 0.5052-0.0621 ( 54024 PWs)   bands (ev):

   -16.0128 -16.0128 -15.9142 -15.9142  -9.0264  -9.0264  -8.5527  -8.5527
    -8.2314  -8.2314  -7.3457  -7.3457  -6.8949  -6.8949  -5.9959  -5.9959
    -5.6777  -5.6777  -4.6932  -4.6932  -4.1550  -4.1550  -1.8632  -1.8632
    -1.4147  -1.4147   2.5728   2.5728   3.9353   3.9353

     occupation numbers 
     1.0000   1.0000   1.0000   1.0000   1.0000   1.0000   1.0000   1.0000
     1.0000   1.0000   1.0000   1.0000   1.0000   1.0000   1.0000   1.0000
     1.0000   1.0000   1.0000   1.0000   1.0000   1.0000   0.0000   0.0000
     0.0000   0.0000   0.0000   0.0000   0.0000   0.0000

          k = 0.2917 0.6014-0.0621 ( 54026 PWs)   bands (ev):

   -15.9741 -15.9741 -15.9152 -15.9152  -8.9737  -8.9737  -8.5830  -8.5830
    -8.3338  -8.3338  -7.3205  -7.3205  -6.8385  -6.8385  -6.0480  -6.0480
    -5.7518  -5.7518  -4.5662  -4.5662  -4.2839  -4.2839  -1.7833  -1.7833
    -1.5340  -1.5340   2.5806   2.5806   4.2985   4.2985

     occupation numbers 
     1.0000   1.0000   1.0000   1.0000   1.0000   1.0000   1.0000   1.0000
     1.0000   1.0000   1.0000   1.0000   1.0000   1.0000   1.0000   1.0000
     1.0000   1.0000   1.0000   1.0000   1.0000   1.0000   0.0000   0.0000
     0.0000   0.0000   0.0000   0.0000   0.0000   0.0000

          k = 0.2917 0.6976-0.0621 ( 54066 PWs)   bands (ev):

   -16.0894 -16.0894 -15.9086 -15.9086  -9.0755  -9.0755  -8.5343  -8.5343
    -8.0666  -8.0666  -7.3831  -7.3831  -6.9670  -6.9670  -5.9227  -5.9227
    -5.5441  -5.5441  -4.8202  -4.8202  -4.0186  -4.0186  -1.9059  -1.9059
    -1.2990  -1.2990   2.5215   2.5215   3.6420   3.6420

     occupation numbers 
     1.0000   1.0000   1.0000   1.0000   1.0000   1.0000   1.0000   1.0000
     1.0000   1.0000   1.0000   1.0000   1.0000   1.0000   1.0000   1.0000
     1.0000   1.0000   1.0000   1.0000   1.0000   1.0000   0.0000   0.0000
     0.0000   0.0000   0.0000   0.0000   0.0000   0.0000

          k = 0.2917-0.3608-0.0621 ( 54070 PWs)   bands (ev):

   -16.3204 -16.3204 -15.8875 -15.8875  -9.0827  -9.0827  -8.5129  -8.5129
    -7.9301  -7.9301  -7.3548  -7.3548  -6.9753  -6.9753  -5.8188  -5.8188
    -5.2283  -5.2283  -4.8604  -4.8604  -3.8355  -3.8355  -1.7805  -1.7805
    -1.2156  -1.2156   2.1511   2.1511   3.4508   3.4508

     occupation numbers 
     1.0000   1.0000   1.0000   1.0000   1.0000   1.0000   1.0000   1.0000
     1.0000   1.0000   1.0000   1.0000   1.0000   1.0000   1.0000   1.0000
     1.0000   1.0000   1.0000   1.0000   1.0000   1.0000   0.0000   0.0000
     0.0000   0.0000   0.0000   0.0000   0.0000   0.0000

          k = 0.2917-0.2646-0.0621 ( 54038 PWs)   bands (ev):

   -16.5851 -16.5851 -15.8609 -15.8609  -8.9903  -8.9903  -8.4508  -8.4508
    -8.1156  -8.1156  -7.4074  -7.4074  -6.6701  -6.6701  -5.8287  -5.8287
    -4.9376  -4.9376  -4.4989  -4.4989  -3.7809  -3.7809  -1.6762  -1.6762
    -1.1165  -1.1165   1.7142   1.7142   3.2187   3.2189

     occupation numbers 
     1.0000   1.0000   1.0000   1.0000   1.0000   1.0000   1.0000   1.0000
     1.0000   1.0000   1.0000   1.0000   1.0000   1.0000   1.0000   1.0000
     1.0000   1.0000   1.0000   1.0000   1.0000   1.0000   0.0000   0.0000
     0.0000   0.0000   0.0000   0.0000   0.0000   0.0000

          k = 0.2917-0.1684-0.0621 ( 54018 PWs)   bands (ev):

   -16.8116 -16.8116 -15.8365 -15.8365  -8.8915  -8.8915  -8.3919  -8.3919
    -8.2060  -8.2060  -7.5210  -7.5210  -6.5398  -6.5398  -5.8117  -5.8117
    -4.5834  -4.5834  -4.1191  -4.1191  -3.6839  -3.6839  -1.9296  -1.9296
    -0.8836  -0.8836   1.6211   1.6211   2.8830   2.8831

     occupation numbers 
     1.0000   1.0000   1.0000   1.0000   1.0000   1.0000   1.0000   1.0000
     1.0000   1.0000   1.0000   1.0000   1.0000   1.0000   1.0000   1.0000
     1.0000   1.0000   1.0000   1.0000   1.0000   1.0000   0.0000   0.0000
     0.0000   0.0000   0.0000   0.0000   0.0000   0.0000

          k = 0.3750 0.6495-0.0621 ( 54026 PWs)   bands (ev):

   -15.9841 -15.9841 -15.9281 -15.9281  -9.1296  -9.1296  -8.5635  -8.5635
    -8.1079  -8.1079  -7.3146  -7.3146  -6.8847  -6.8847  -6.0282  -6.0282
    -5.7414  -5.7414  -4.5893  -4.5893  -4.2874  -4.2874  -1.7795  -1.7795
    -1.4372  -1.4372   2.4632   2.4632   4.2861   4.2861

     occupation numbers 
     1.0000   1.0000   1.0000   1.0000   1.0000   1.0000   1.0000   1.0000
     1.0000   1.0000   1.0000   1.0000   1.0000   1.0000   1.0000   1.0000
     1.0000   1.0000   1.0000   1.0000   1.0000   1.0000   0.0000   0.0000
     0.0000   0.0000   0.0000   0.0000   0.0000   0.0000

          k = 0.3750 0.7457-0.0621 ( 54054 PWs)   bands (ev):

   -16.0874 -16.0874 -15.9295 -15.9295  -9.3932  -9.3932  -8.5046  -8.5046
    -7.7035  -7.7035  -7.1777  -7.1777  -6.9833  -6.9833  -5.9692  -5.9692
    -5.6127  -5.6127  -4.7860  -4.7860  -4.2572  -4.2572  -1.5856  -1.5856
    -1.2023  -1.2023   1.9535   1.9535   3.7273   3.7274

     occupation numbers 
     1.0000   1.0000   1.0000   1.0000   1.0000   1.0000   1.0000   1.0000
     1.0000   1.0000   1.0000   1.0000   1.0000   1.0000   1.0000   1.0000
     1.0000   1.0000   1.0000   1.0000   1.0000   1.0000   0.0000   0.0000
     0.0000   0.0000   0.0000   0.0000   0.0000   0.0000

          k = 0.3750-0.3127-0.0621 ( 54084 PWs)   bands (ev):

   -16.2626 -16.2626 -15.9073 -15.9073  -9.4386  -9.4386  -8.4347  -8.4347
    -7.8456  -7.8456  -7.1703  -7.1703  -6.5801  -6.5801  -5.8756  -5.8756
    -5.3753  -5.3753  -4.9564  -4.9564  -4.2474  -4.2474  -1.3177  -1.3177
    -1.0053  -1.0053   1.4231   1.4231   3.1406   3.1406

     occupation numbers 
     1.0000   1.0000   1.0000   1.0000   1.0000   1.0000   1.0000   1.0000
     1.0000   1.0000   1.0000   1.0000   1.0000   1.0000   1.0000   1.0000
     1.0000   1.0000   1.0000   1.0000   1.0000   1.0000   0.0000   0.0000
     0.0000   0.0000   0.0000   0.0000   0.0000   0.0000

          k = 0.3750-0.2165-0.0621 ( 54066 PWs)   bands (ev):

   -16.4447 -16.4447 -15.8816 -15.8816  -9.2752  -9.2752  -8.3872  -8.3872
    -8.0810  -8.0810  -7.2595  -7.2595  -6.4062  -6.4062  -5.8375  -5.8375
    -5.2162  -5.2162  -4.7112  -4.7112  -4.1313  -4.1313  -1.4429  -1.4429
    -0.8100  -0.8100   1.2364   1.2364   2.9535   2.9536

     occupation numbers 
     1.0000   1.0000   1.0000   1.0000   1.0000   1.0000   1.0000   1.0000
     1.0000   1.0000   1.0000   1.0000   1.0000   1.0000   1.0000   1.0000
     1.0000   1.0000   1.0000   1.0000   1.0000   1.0000   0.0000   0.0000
     0.0000   0.0000   0.0000   0.0000   0.0000   0.0000

          k = 0.4583 0.7939-0.0621 ( 54080 PWs)   bands (ev):

   -16.1097 -16.1097 -15.9485 -15.9485  -9.6420  -9.6420  -8.4294  -8.4294
    -7.5447  -7.5447  -7.2482  -7.2482  -6.5040  -6.5040  -5.9053  -5.9053
    -5.5947  -5.5947  -4.8715  -4.8715  -4.6462  -4.6462  -1.1171  -1.1171
    -1.0224  -1.0224   1.3621   1.3621   2.9995   2.9995

     occupation numbers 
     1.0000   1.0000   1.0000   1.0000   1.0000   1.0000   1.0000   1.0000
     1.0000   1.0000   1.0000   1.0000   1.0000   1.0000   1.0000   1.0000
     1.0000   1.0000   1.0000   1.0000   1.0000   1.0000   0.0000   0.0000
     0.0000   0.0000   0.0000   0.0000   0.0000   0.0000

          k = 0.4583-0.2646-0.0621 ( 54092 PWs)   bands (ev):

   -16.1801 -16.1801 -15.9342 -15.9342  -9.6574  -9.6574  -8.3912  -8.3912
    -7.6722  -7.6722  -7.2303  -7.2303  -6.3153  -6.3153  -5.7457  -5.7457
    -5.3437  -5.3437  -5.2201  -5.2201  -4.6494  -4.6494  -1.1110  -1.1110
    -0.7479  -0.7479   1.1348   1.1348   2.6371   2.6371

     occupation numbers 
     1.0000   1.0000   1.0000   1.0000   1.0000   1.0000   1.0000   1.0000
     1.0000   1.0000   1.0000   1.0000   1.0000   1.0000   1.0000   1.0000
     1.0000   1.0000   1.0000   1.0000   1.0000   1.0000   0.0000   0.0000
     0.0000   0.0000   0.0000   0.0000   0.0000   0.0000

     the Fermi energy is    -2.3893 ev

!    total energy              =    -127.77898568 Ry
     estimated scf accuracy    <       0.00000004 Ry
     smearing contrib. (-TS)   =      -0.00000000 Ry
     internal energy E=F+TS    =    -127.77898568 Ry

     The total energy is F=E-TS. E is the sum of the following terms:
     one-electron contribution =   -1011.36633906 Ry
     hartree contribution      =     512.30084575 Ry
     xc contribution           =     -58.02983820 Ry
     ewald contribution        =     429.31634582 Ry

     convergence has been achieved in  13 iterations

     Writing all to output data dir ./tmp/ptse2.save/

     init_run     :     20.28s CPU     21.63s WALL (       1 calls)
     electrons    :    699.32s CPU    732.77s WALL (       1 calls)

     Called by init_run:
     wfcinit      :     12.93s CPU     13.11s WALL (       1 calls)
     wfcinit:atom :      0.15s CPU      0.15s WALL (      42 calls)
     wfcinit:wfcr :     12.00s CPU     12.17s WALL (      42 calls)
     potinit      :      1.87s CPU      1.93s WALL (       1 calls)
     hinit0       :      3.48s CPU      3.50s WALL (       1 calls)

     Called by electrons:
     c_bands      :    453.98s CPU    456.40s WALL (      13 calls)
     sum_band     :    217.88s CPU    233.09s WALL (      13 calls)
     v_of_rho     :      0.64s CPU      0.66s WALL (      14 calls)
     v_h          :      0.32s CPU      0.33s WALL (      14 calls)
     v_xc         :      0.32s CPU      0.33s WALL (      14 calls)
     newd         :     24.70s CPU     41.38s WALL (      14 calls)
     mix_rho      :      2.23s CPU      2.28s WALL (      13 calls)

     Called by c_bands:
     init_us_2    :      2.61s CPU      2.64s WALL (    1134 calls)
     init_us_2:cp :      2.60s CPU      2.63s WALL (    1134 calls)
     cegterg      :    438.43s CPU    440.77s WALL (     546 calls)

     Called by sum_band:
     sum_band:wei :      0.00s CPU      0.00s WALL (      13 calls)
     sum_band:loo :    180.83s CPU    181.28s WALL (      13 calls)
     sum_band:buf :      1.16s CPU      1.17s WALL (     546 calls)
     sum_band:ini :      1.30s CPU      1.30s WALL (     546 calls)
     sum_band:cal :      2.93s CPU      2.94s WALL (     546 calls)
     sum_band:bec :      0.63s CPU      0.63s WALL (     546 calls)
     addusdens    :     34.54s CPU     49.30s WALL (      13 calls)
                                        0.00s GPU  (      13 calls)
     addusd:skk   :      0.03s CPU      0.04s WALL (      26 calls)
                                        0.00s GPU  (      26 calls)

     Called by *egterg:
     cdiaghg      :      1.49s CPU      1.49s WALL (    2186 calls)
     cegterg:over :      9.45s CPU      9.47s WALL (    1640 calls)
     cegterg:upda :      6.45s CPU      6.54s WALL (    1640 calls)
     cegterg:last :     14.05s CPU     14.06s WALL (    1120 calls)
     h_psi        :    402.73s CPU    404.44s WALL (    2228 calls)
     s_psi        :      5.22s CPU      5.28s WALL (    2228 calls)
     g_psi        :      1.16s CPU      1.16s WALL (    1640 calls)

     Called by h_psi:
     h_psi:calbec :      8.38s CPU      8.42s WALL (    2228 calls)
     vloc_psi     :    385.74s CPU    387.08s WALL (    2228 calls)
     add_vuspsi   :      5.36s CPU      5.39s WALL (    2228 calls)

     General routines
     calbec       :     11.29s CPU     11.35s WALL (    2774 calls)
     fft          :      2.66s CPU      2.67s WALL (     238 calls)
     ffts         :      0.34s CPU      0.34s WALL (     108 calls)
     fftw         :    191.85s CPU    192.09s WALL (  203188 calls)
     interpolate  :      1.00s CPU      1.00s WALL (      56 calls)

     Parallel routines

     PWSCF        :  12m 3.06s CPU  12m42.43s WALL


   This run was terminated on:  14:43:57  19Jun2025            

=------------------------------------------------------------------------------=
   JOB DONE.
=------------------------------------------------------------------------------=
