
     Program PROJWFC v.7.2 starts on 19Jun2025 at 15:13:54 

     This program is part of the open-source Quantum ESPRESSO suite
     for quantum simulation of materials; please cite
         "P. Giannozzi et al., J. Phys.:Condens. Matter 21 395502 (2009);
         "P. Giannozzi et al., J. Phys.:Condens. Matter 29 465901 (2017);
         "P. Giannozzi et al., J. Chem. Phys. 152 154105 (2020);
          URL http://www.quantum-espresso.org", 
     in publications or presentations arising from this work. More details at
     http://www.quantum-espresso.org/quote

     Parallel version (MPI & OpenMP), running on      10 processor cores
     Number of MPI processes:                10
     Threads/MPI process:                     1

     MPI processes distributed on     1 nodes
     R & G space division:  proc/nbgrp/npool/nimage =      10
     63914 MiB available memory on the printing compute node when the environment starts


     Reading xml data from directory:

     ./tmp/ptse2.save/
     file Pt.rel.UPF: wavefunction(s)  5D renormalized

     IMPORTANT: XC functional enforced from input :
     Exchange-correlation= PZ
                           (   1   1   0   0   0   0   0)
     Any further DFT definition will be discarded
     Please, verify this is what you really want


     Parallelization info
     --------------------
     sticks:   dense  smooth     PW     G-vecs:    dense   smooth      PW
     Min         409     163     47               170929    43257    6747
     Max         410     164     48               170954    43296    6776
     Sum        4093    1639    475              1709389   432857   67599

     Using Slab Decomposition


     negative rho (up, down):  6.488E-06 0.000E+00

     Gaussian broadening (read from input): ngauss,degauss=   0    0.001000


     Calling projwave .... 
     Subspace diagonalization in iterative solution of the eigenvalue problem:
     one sub-group per band group will be used
     ELPA distributed-memory algorithm (size of sub-group:  3*  3 procs)

     linear algebra parallelized on   9 procs

  Problem Sizes 
  natomwfc =           34
  nx       =           12
  nbnd     =           30
  nkstot   =          110
  npwx     =         5522
  nkb      =           62


     Atomic states used for projection
     (read from pseudopotential files):

     state #   1: atom   1 (Pt ), wfc  1 (l=0 j=0.5 m_j=-0.5)
     state #   2: atom   1 (Pt ), wfc  1 (l=0 j=0.5 m_j= 0.5)
     state #   3: atom   1 (Pt ), wfc  2 (l=1 j=0.5 m_j=-0.5)
     state #   4: atom   1 (Pt ), wfc  2 (l=1 j=0.5 m_j= 0.5)
     state #   5: atom   1 (Pt ), wfc  3 (l=1 j=1.5 m_j=-1.5)
     state #   6: atom   1 (Pt ), wfc  3 (l=1 j=1.5 m_j=-0.5)
     state #   7: atom   1 (Pt ), wfc  3 (l=1 j=1.5 m_j= 0.5)
     state #   8: atom   1 (Pt ), wfc  3 (l=1 j=1.5 m_j= 1.5)
     state #   9: atom   1 (Pt ), wfc  4 (l=2 j=1.5 m_j=-1.5)
     state #  10: atom   1 (Pt ), wfc  4 (l=2 j=1.5 m_j=-0.5)
     state #  11: atom   1 (Pt ), wfc  4 (l=2 j=1.5 m_j= 0.5)
     state #  12: atom   1 (Pt ), wfc  4 (l=2 j=1.5 m_j= 1.5)
     state #  13: atom   1 (Pt ), wfc  5 (l=2 j=2.5 m_j=-2.5)
     state #  14: atom   1 (Pt ), wfc  5 (l=2 j=2.5 m_j=-1.5)
     state #  15: atom   1 (Pt ), wfc  5 (l=2 j=2.5 m_j=-0.5)
     state #  16: atom   1 (Pt ), wfc  5 (l=2 j=2.5 m_j= 0.5)
     state #  17: atom   1 (Pt ), wfc  5 (l=2 j=2.5 m_j= 1.5)
     state #  18: atom   1 (Pt ), wfc  5 (l=2 j=2.5 m_j= 2.5)
     state #  19: atom   2 (Se ), wfc  1 (l=0 j=0.5 m_j=-0.5)
     state #  20: atom   2 (Se ), wfc  1 (l=0 j=0.5 m_j= 0.5)
     state #  21: atom   2 (Se ), wfc  2 (l=1 j=0.5 m_j=-0.5)
     state #  22: atom   2 (Se ), wfc  2 (l=1 j=0.5 m_j= 0.5)
     state #  23: atom   2 (Se ), wfc  3 (l=1 j=1.5 m_j=-1.5)
     state #  24: atom   2 (Se ), wfc  3 (l=1 j=1.5 m_j=-0.5)
     state #  25: atom   2 (Se ), wfc  3 (l=1 j=1.5 m_j= 0.5)
     state #  26: atom   2 (Se ), wfc  3 (l=1 j=1.5 m_j= 1.5)
     state #  27: atom   3 (Se ), wfc  1 (l=0 j=0.5 m_j=-0.5)
     state #  28: atom   3 (Se ), wfc  1 (l=0 j=0.5 m_j= 0.5)
     state #  29: atom   3 (Se ), wfc  2 (l=1 j=0.5 m_j=-0.5)
     state #  30: atom   3 (Se ), wfc  2 (l=1 j=0.5 m_j= 0.5)
     state #  31: atom   3 (Se ), wfc  3 (l=1 j=1.5 m_j=-1.5)
     state #  32: atom   3 (Se ), wfc  3 (l=1 j=1.5 m_j=-0.5)
     state #  33: atom   3 (Se ), wfc  3 (l=1 j=1.5 m_j= 0.5)
     state #  34: atom   3 (Se ), wfc  3 (l=1 j=1.5 m_j= 1.5)

 k =   0.0250000000  0.0433012702 -0.0621166667
==== e(   1) =   -17.59218 eV ==== 
     psi = 0.160*[#  27]+0.160*[#  28]+0.158*[#  19]+0.158*[#  20]+0.155*[#   1]
          +0.155*[#   2]+0.006*[#  32]+0.006*[#  33]+0.005*[#   5]+0.005*[#   8]
          +0.004*[#  24]+0.004*[#  25]+0.004*[#  21]+0.004*[#  22]+0.003*[#   3]
          +0.003*[#   4]+0.002*[#  15]+0.002*[#  16]+0.002*[#  29]+0.002*[#  30]
          +0.001*[#   6]+0.001*[#   7]+0.001*[#  10]+0.001*[#  11]
    |psi|^2 = 0.999
==== e(   2) =   -17.59218 eV ==== 
     psi = 0.160*[#  19]+0.160*[#  20]+0.158*[#  27]+0.158*[#  28]+0.155*[#   1]
          +0.155*[#   2]+0.006*[#  24]+0.006*[#  25]+0.005*[#   5]+0.005*[#   8]
          +0.004*[#  32]+0.004*[#  33]+0.004*[#  29]+0.004*[#  30]+0.003*[#   3]
          +0.003*[#   4]+0.002*[#  15]+0.002*[#  16]+0.002*[#  21]+0.002*[#  22]
          +0.001*[#   6]+0.001*[#   7]+0.001*[#  10]+0.001*[#  11]
    |psi|^2 = 0.999
==== e(   3) =   -15.75705 eV ==== 
     psi = 0.187*[#  19]+0.187*[#  20]+0.186*[#  27]+0.186*[#  28]+0.081*[#   6]
          +0.081*[#   7]+0.044*[#   3]+0.044*[#   4]
    |psi|^2 = 0.999
==== e(   4) =   -15.75705 eV ==== 
     psi = 0.187*[#  27]+0.187*[#  28]+0.186*[#  19]+0.186*[#  20]+0.081*[#   6]
          +0.081*[#   7]+0.044*[#   3]+0.044*[#   4]
    |psi|^2 = 0.999
==== e(   5) =    -8.96772 eV ==== 
     psi = 0.309*[#   9]+0.309*[#  12]+0.062*[#  23]+0.062*[#  26]+0.062*[#  31]
          +0.062*[#  34]+0.062*[#  14]+0.062*[#  17]
    |psi|^2 = 0.995
==== e(   6) =    -8.96772 eV ==== 
     psi = 0.309*[#   9]+0.309*[#  12]+0.062*[#  23]+0.062*[#  26]+0.062*[#  31]
          +0.062*[#  34]+0.062*[#  14]+0.062*[#  17]
    |psi|^2 = 0.995
==== e(   7) =    -8.77079 eV ==== 
     psi = 0.226*[#  10]+0.226*[#  11]+0.092*[#  32]+0.092*[#  33]+0.079*[#  24]
          +0.079*[#  25]+0.073*[#  13]+0.073*[#  18]+0.010*[#  27]+0.010*[#  28]
          +0.008*[#  19]+0.008*[#  20]+0.007*[#  15]+0.007*[#  16]+0.001*[#   1]
          +0.001*[#   2]
    |psi|^2 = 0.995
==== e(   8) =    -8.77079 eV ==== 
     psi = 0.226*[#  10]+0.226*[#  11]+0.092*[#  24]+0.092*[#  25]+0.079*[#  32]
          +0.079*[#  33]+0.073*[#  13]+0.073*[#  18]+0.010*[#  19]+0.010*[#  20]
          +0.008*[#  27]+0.008*[#  28]+0.007*[#  15]+0.007*[#  16]+0.001*[#   1]
          +0.001*[#   2]
    |psi|^2 = 0.995
==== e(   9) =    -8.52309 eV ==== 
     psi = 0.130*[#  13]+0.130*[#  18]+0.129*[#  15]+0.129*[#  16]+0.106*[#  29]
          +0.106*[#  30]+0.095*[#  21]+0.095*[#  22]+0.010*[#  27]+0.010*[#  28]
          +0.010*[#  32]+0.010*[#  33]+0.009*[#  19]+0.009*[#  20]+0.004*[#  24]
          +0.004*[#  25]+0.003*[#   1]+0.003*[#   2]
    |psi|^2 = 0.995
==== e(  10) =    -8.52309 eV ==== 
     psi = 0.130*[#  13]+0.130*[#  18]+0.129*[#  15]+0.129*[#  16]+0.106*[#  21]
          +0.106*[#  22]+0.095*[#  29]+0.095*[#  30]+0.010*[#  19]+0.010*[#  20]
          +0.010*[#  24]+0.010*[#  25]+0.009*[#  27]+0.009*[#  28]+0.004*[#  32]
          +0.004*[#  33]+0.003*[#   1]+0.003*[#   2]
    |psi|^2 = 0.995
==== e(  11) =    -6.53114 eV ==== 
     psi = 0.202*[#  10]+0.202*[#  11]+0.168*[#  13]+0.168*[#  18]+0.088*[#  15]
          +0.088*[#  16]+0.014*[#  24]+0.014*[#  25]+0.012*[#  32]+0.012*[#  33]
          +0.003*[#  27]+0.003*[#  28]+0.002*[#   1]+0.002*[#   2]+0.002*[#  31]
          +0.002*[#  34]+0.002*[#  21]+0.002*[#  22]+0.001*[#  19]+0.001*[#  20]
          +0.001*[#  23]+0.001*[#  26]
    |psi|^2 = 0.994
==== e(  12) =    -6.53114 eV ==== 
     psi = 0.202*[#  10]+0.202*[#  11]+0.168*[#  13]+0.168*[#  18]+0.088*[#  15]
          +0.088*[#  16]+0.014*[#  32]+0.014*[#  33]+0.012*[#  24]+0.012*[#  25]
          +0.003*[#  19]+0.003*[#  20]+0.002*[#   1]+0.002*[#   2]+0.002*[#  23]
          +0.002*[#  26]+0.002*[#  29]+0.002*[#  30]+0.001*[#  27]+0.001*[#  28]
          +0.001*[#  31]+0.001*[#  34]
    |psi|^2 = 0.994
==== e(  13) =    -6.32201 eV ==== 
     psi = 0.361*[#  14]+0.361*[#  17]+0.116*[#   9]+0.116*[#  12]+0.007*[#  31]
          +0.007*[#  34]+0.006*[#  23]+0.006*[#  26]+0.003*[#  29]+0.003*[#  30]
          +0.002*[#  21]+0.002*[#  22]
    |psi|^2 = 0.994
==== e(  14) =    -6.32201 eV ==== 
     psi = 0.361*[#  14]+0.361*[#  17]+0.116*[#   9]+0.116*[#  12]+0.007*[#  23]
          +0.007*[#  26]+0.006*[#  31]+0.006*[#  34]+0.003*[#  21]+0.003*[#  22]
          +0.002*[#  29]+0.002*[#  30]
    |psi|^2 = 0.994
==== e(  15) =    -4.71607 eV ==== 
     psi = 0.218*[#  15]+0.218*[#  16]+0.058*[#  24]+0.058*[#  25]+0.057*[#  29]
          +0.057*[#  30]+0.044*[#   1]+0.044*[#   2]+0.039*[#  10]+0.039*[#  11]
          +0.030*[#  32]+0.030*[#  33]+0.016*[#  19]+0.016*[#  20]+0.015*[#  27]
          +0.015*[#  28]+0.006*[#  31]+0.006*[#  34]+0.006*[#  23]+0.006*[#  26]
          +0.004*[#  13]+0.004*[#  18]
    |psi|^2 = 0.993
==== e(  16) =    -4.71607 eV ==== 
     psi = 0.218*[#  15]+0.218*[#  16]+0.058*[#  32]+0.058*[#  33]+0.057*[#  21]
          +0.057*[#  22]+0.044*[#   1]+0.044*[#   2]+0.039*[#  10]+0.039*[#  11]
          +0.030*[#  24]+0.030*[#  25]+0.016*[#  27]+0.016*[#  28]+0.015*[#  19]
          +0.015*[#  20]+0.006*[#  23]+0.006*[#  26]+0.006*[#  31]+0.006*[#  34]
          +0.004*[#  13]+0.004*[#  18]
    |psi|^2 = 0.993
==== e(  17) =    -4.15601 eV ==== 
     psi = 0.183*[#  29]+0.183*[#  30]+0.162*[#  21]+0.162*[#  22]+0.076*[#  32]
          +0.076*[#  33]+0.031*[#   6]+0.031*[#   7]+0.023*[#  24]+0.023*[#  25]
          +0.008*[#  15]+0.008*[#  16]+0.006*[#  19]+0.006*[#  20]+0.002*[#  27]
          +0.002*[#  28]+0.002*[#  10]+0.002*[#  11]+0.002*[#  14]+0.002*[#  17]
          +0.001*[#  31]+0.001*[#  34]
    |psi|^2 = 0.997
==== e(  18) =    -4.15600 eV ==== 
     psi = 0.183*[#  21]+0.183*[#  22]+0.162*[#  29]+0.162*[#  30]+0.076*[#  24]
          +0.076*[#  25]+0.031*[#   6]+0.031*[#   7]+0.023*[#  32]+0.023*[#  33]
          +0.008*[#  15]+0.008*[#  16]+0.006*[#  27]+0.006*[#  28]+0.002*[#  19]
          +0.002*[#  20]+0.002*[#  10]+0.002*[#  11]+0.002*[#  14]+0.002*[#  17]
          +0.001*[#  23]+0.001*[#  26]
    |psi|^2 = 0.997
==== e(  19) =    -3.62506 eV ==== 
     psi = 0.222*[#  32]+0.222*[#  33]+0.138*[#  24]+0.138*[#  25]+0.061*[#  21]
          +0.061*[#  22]+0.028*[#   3]+0.028*[#   4]+0.026*[#  29]+0.026*[#  30]
          +0.007*[#  15]+0.007*[#  16]+0.003*[#  19]+0.003*[#  20]+0.003*[#  27]
          +0.003*[#  28]+0.003*[#   9]+0.003*[#  12]+0.003*[#  31]+0.003*[#  34]
          +0.002*[#  10]+0.002*[#  11]
    |psi|^2 = 0.996
==== e(  20) =    -3.62506 eV ==== 
     psi = 0.222*[#  24]+0.222*[#  25]+0.138*[#  32]+0.138*[#  33]+0.061*[#  29]
          +0.061*[#  30]+0.028*[#   3]+0.028*[#   4]+0.026*[#  21]+0.026*[#  22]
          +0.007*[#  15]+0.007*[#  16]+0.003*[#  27]+0.003*[#  28]+0.003*[#  19]
          +0.003*[#  20]+0.003*[#   9]+0.003*[#  12]+0.003*[#  23]+0.003*[#  26]
          +0.002*[#  10]+0.002*[#  11]
    |psi|^2 = 0.996
==== e(  21) =    -3.26864 eV ==== 
     psi = 0.230*[#  31]+0.230*[#  34]+0.229*[#  23]+0.229*[#  26]+0.014*[#   5]
          +0.014*[#   8]+0.007*[#  15]+0.007*[#  16]+0.005*[#  32]+0.005*[#  33]
          +0.003*[#  13]+0.003*[#  18]+0.003*[#  21]+0.003*[#  22]+0.003*[#  24]
          +0.003*[#  25]+0.002*[#  10]+0.002*[#  11]+0.001*[#  29]+0.001*[#  30]
          
    |psi|^2 = 0.996
==== e(  22) =    -3.26864 eV ==== 
     psi = 0.230*[#  23]+0.230*[#  26]+0.229*[#  31]+0.229*[#  34]+0.014*[#   5]
          +0.014*[#   8]+0.007*[#  15]+0.007*[#  16]+0.005*[#  24]+0.005*[#  25]
          +0.003*[#  13]+0.003*[#  18]+0.003*[#  29]+0.003*[#  30]+0.003*[#  32]
          +0.003*[#  33]+0.002*[#  10]+0.002*[#  11]+0.001*[#  21]+0.001*[#  22]
          
    |psi|^2 = 0.996
==== e(  23) =    -0.66082 eV ==== 
     psi = 0.130*[#  23]+0.130*[#  26]+0.118*[#  31]+0.118*[#  34]+0.049*[#  14]
          +0.049*[#  17]+0.048*[#   9]+0.048*[#  12]+0.034*[#  29]+0.034*[#  30]
          +0.031*[#  13]+0.031*[#  18]+0.025*[#  21]+0.025*[#  22]+0.022*[#  32]
          +0.022*[#  33]+0.007*[#  24]+0.007*[#  25]+0.005*[#   3]+0.005*[#   4]
          +0.005*[#  15]+0.005*[#  16]+0.005*[#   6]+0.005*[#   7]+0.005*[#  10]
          +0.005*[#  11]+0.003*[#  27]+0.003*[#  28]+0.003*[#  19]+0.003*[#  20]
          
    |psi|^2 = 0.986
==== e(  24) =    -0.66082 eV ==== 
     psi = 0.130*[#  31]+0.130*[#  34]+0.118*[#  23]+0.118*[#  26]+0.049*[#  14]
          +0.049*[#  17]+0.048*[#   9]+0.048*[#  12]+0.034*[#  21]+0.034*[#  22]
          +0.031*[#  13]+0.031*[#  18]+0.025*[#  29]+0.025*[#  30]+0.022*[#  24]
          +0.022*[#  25]+0.007*[#  32]+0.007*[#  33]+0.005*[#   3]+0.005*[#   4]
          +0.005*[#  15]+0.005*[#  16]+0.005*[#   6]+0.005*[#   7]+0.005*[#  10]
          +0.005*[#  11]+0.003*[#  19]+0.003*[#  20]+0.003*[#  27]+0.003*[#  28]
          
    |psi|^2 = 0.986
==== e(  25) =    -0.51999 eV ==== 
     psi = 0.093*[#  29]+0.093*[#  30]+0.084*[#  13]+0.084*[#  18]+0.070*[#  21]
          +0.070*[#  22]+0.067*[#  23]+0.067*[#  26]+0.047*[#  32]+0.047*[#  33]
          +0.035*[#  24]+0.035*[#  25]+0.033*[#  31]+0.033*[#  34]+0.019*[#  14]
          +0.019*[#  17]+0.018*[#   9]+0.018*[#  12]+0.015*[#  15]+0.015*[#  16]
          +0.014*[#  10]+0.014*[#  11]
    |psi|^2 = 0.992
==== e(  26) =    -0.51999 eV ==== 
     psi = 0.093*[#  21]+0.093*[#  22]+0.084*[#  13]+0.084*[#  18]+0.070*[#  29]
          +0.070*[#  30]+0.067*[#  31]+0.067*[#  34]+0.047*[#  24]+0.047*[#  25]
          +0.035*[#  32]+0.035*[#  33]+0.033*[#  23]+0.033*[#  26]+0.019*[#  14]
          +0.019*[#  17]+0.018*[#   9]+0.018*[#  12]+0.015*[#  15]+0.015*[#  16]
          +0.014*[#  10]+0.014*[#  11]
    |psi|^2 = 0.992
==== e(  27) =     1.09267 eV ==== 
     psi = 0.173*[#   1]+0.173*[#   2]+0.036*[#  27]+0.036*[#  28]+0.032*[#  19]
          +0.032*[#  20]+0.023*[#  32]+0.023*[#  33]+0.014*[#  24]+0.014*[#  25]
          +0.013*[#  21]+0.013*[#  22]+0.009*[#   5]+0.009*[#   8]+0.005*[#   3]
          +0.005*[#   4]+0.005*[#  29]+0.005*[#  30]+0.002*[#  15]+0.002*[#  16]
          +0.001*[#  31]+0.001*[#  34]+0.001*[#   6]+0.001*[#   7]
    |psi|^2 = 0.632
==== e(  28) =     1.09267 eV ==== 
     psi = 0.173*[#   1]+0.173*[#   2]+0.036*[#  19]+0.036*[#  20]+0.032*[#  27]
          +0.032*[#  28]+0.023*[#  24]+0.023*[#  25]+0.014*[#  32]+0.014*[#  33]
          +0.013*[#  29]+0.013*[#  30]+0.009*[#   5]+0.009*[#   8]+0.005*[#   3]
          +0.005*[#   4]+0.005*[#  21]+0.005*[#  22]+0.002*[#  15]+0.002*[#  16]
          +0.001*[#  23]+0.001*[#  26]+0.001*[#   6]+0.001*[#   7]
    |psi|^2 = 0.632
==== e(  29) =     1.86272 eV ==== 
     psi = 0.069*[#   3]+0.069*[#   4]+0.008*[#  27]+0.008*[#  28]+0.008*[#  24]
          +0.008*[#  25]+0.008*[#  19]+0.008*[#  20]+0.003*[#   6]+0.003*[#   7]
          +0.002*[#  23]+0.002*[#  26]+0.002*[#  32]+0.002*[#  33]+0.002*[#  31]
          +0.002*[#  34]+0.001*[#  21]+0.001*[#  22]+0.001*[#  29]+0.001*[#  30]
          
    |psi|^2 = 0.212
==== e(  30) =     1.86272 eV ==== 
     psi = 0.069*[#   3]+0.069*[#   4]+0.008*[#  19]+0.008*[#  20]+0.008*[#  32]
          +0.008*[#  33]+0.008*[#  27]+0.008*[#  28]+0.003*[#   6]+0.003*[#   7]
          +0.002*[#  24]+0.002*[#  25]+0.002*[#  31]+0.002*[#  34]+0.002*[#  23]
          +0.002*[#  26]+0.001*[#  29]+0.001*[#  30]+0.001*[#  21]+0.001*[#  22]
          
    |psi|^2 = 0.212

 k =   0.0250000000  0.1010362971 -0.0621166667
==== e(   1) =   -17.52528 eV ==== 
     psi = 0.157*[#  27]+0.157*[#  28]+0.153*[#  19]+0.153*[#  20]+0.137*[#   1]
          +0.137*[#   2]+0.018*[#   5]+0.018*[#   8]+0.010*[#   3]+0.010*[#   4]
          +0.007*[#  32]+0.007*[#  33]+0.005*[#   6]+0.005*[#   7]+0.004*[#  21]
          +0.004*[#  22]+0.003*[#  24]+0.003*[#  25]+0.002*[#  15]+0.002*[#  16]
          
    |psi|^2 = 0.999
==== e(   2) =   -17.52528 eV ==== 
     psi = 0.157*[#  19]+0.157*[#  20]+0.153*[#  27]+0.153*[#  28]+0.137*[#   1]
          +0.137*[#   2]+0.018*[#   5]+0.018*[#   8]+0.010*[#   3]+0.010*[#   4]
          +0.007*[#  24]+0.007*[#  25]+0.005*[#   6]+0.005*[#   7]+0.004*[#  29]
          +0.004*[#  30]+0.003*[#  32]+0.003*[#  33]+0.002*[#  15]+0.002*[#  16]
          
    |psi|^2 = 0.999
==== e(   3) =   -15.76361 eV ==== 
     psi = 0.189*[#  19]+0.189*[#  20]+0.186*[#  27]+0.186*[#  28]+0.077*[#   6]
          +0.077*[#   7]+0.041*[#   3]+0.041*[#   4]+0.002*[#  14]+0.002*[#  17]
          +0.001*[#   9]+0.001*[#  12]+0.001*[#  10]+0.001*[#  11]+0.001*[#  13]
          +0.001*[#  18]
    |psi|^2 = 0.999
==== e(   4) =   -15.76361 eV ==== 
     psi = 0.189*[#  27]+0.189*[#  28]+0.186*[#  19]+0.186*[#  20]+0.077*[#   6]
          +0.077*[#   7]+0.041*[#   3]+0.041*[#   4]+0.002*[#  14]+0.002*[#  17]
          +0.001*[#   9]+0.001*[#  12]+0.001*[#  10]+0.001*[#  11]+0.001*[#  13]
          +0.001*[#  18]
    |psi|^2 = 0.999
==== e(   5) =    -8.95138 eV ==== 
     psi = 0.303*[#   9]+0.303*[#  12]+0.062*[#  23]+0.062*[#  26]+0.062*[#  31]
          +0.062*[#  34]+0.058*[#  14]+0.058*[#  17]+0.003*[#  32]+0.003*[#  33]
          +0.002*[#   6]+0.002*[#   7]+0.002*[#   3]+0.002*[#   4]+0.002*[#  13]
          +0.002*[#  18]+0.002*[#  24]+0.002*[#  25]+0.001*[#  29]+0.001*[#  30]
          
    |psi|^2 = 0.995
==== e(   6) =    -8.95138 eV ==== 
     psi = 0.303*[#   9]+0.303*[#  12]+0.062*[#  23]+0.062*[#  26]+0.062*[#  31]
          +0.062*[#  34]+0.058*[#  14]+0.058*[#  17]+0.003*[#  24]+0.003*[#  25]
          +0.002*[#   6]+0.002*[#   7]+0.002*[#   3]+0.002*[#   4]+0.002*[#  13]
          +0.002*[#  18]+0.002*[#  32]+0.002*[#  33]+0.001*[#  21]+0.001*[#  22]
          
    |psi|^2 = 0.995
==== e(   7) =    -8.73172 eV ==== 
     psi = 0.223*[#  10]+0.223*[#  11]+0.093*[#  32]+0.093*[#  33]+0.086*[#  13]
          +0.086*[#  18]+0.067*[#  24]+0.067*[#  25]+0.009*[#  27]+0.009*[#  28]
          +0.006*[#  19]+0.006*[#  20]+0.004*[#  21]+0.004*[#  22]+0.003*[#  15]
          +0.003*[#  16]+0.002*[#  31]+0.002*[#  34]+0.001*[#   1]+0.001*[#   2]
          +0.001*[#   9]+0.001*[#  12]
    |psi|^2 = 0.995
==== e(   8) =    -8.73172 eV ==== 
     psi = 0.223*[#  10]+0.223*[#  11]+0.093*[#  24]+0.093*[#  25]+0.086*[#  13]
          +0.086*[#  18]+0.067*[#  32]+0.067*[#  33]+0.009*[#  19]+0.009*[#  20]
          +0.006*[#  27]+0.006*[#  28]+0.004*[#  29]+0.004*[#  30]+0.003*[#  15]
          +0.003*[#  16]+0.002*[#  23]+0.002*[#  26]+0.001*[#   1]+0.001*[#   2]
          +0.001*[#   9]+0.001*[#  12]
    |psi|^2 = 0.995
==== e(   9) =    -8.48031 eV ==== 
     psi = 0.131*[#  15]+0.131*[#  16]+0.110*[#  13]+0.110*[#  18]+0.107*[#  29]
          +0.107*[#  30]+0.090*[#  21]+0.090*[#  22]+0.018*[#  32]+0.018*[#  33]
          +0.012*[#  27]+0.012*[#  28]+0.010*[#  19]+0.010*[#  20]+0.006*[#  24]
          +0.006*[#  25]+0.004*[#   1]+0.004*[#   2]+0.003*[#  10]+0.003*[#  11]
          +0.001*[#   9]+0.001*[#  12]
    |psi|^2 = 0.995
==== e(  10) =    -8.48031 eV ==== 
     psi = 0.131*[#  15]+0.131*[#  16]+0.110*[#  13]+0.110*[#  18]+0.107*[#  21]
          +0.107*[#  22]+0.090*[#  29]+0.090*[#  30]+0.018*[#  24]+0.018*[#  25]
          +0.012*[#  19]+0.012*[#  20]+0.010*[#  27]+0.010*[#  28]+0.006*[#  32]
          +0.006*[#  33]+0.004*[#   1]+0.004*[#   2]+0.003*[#  10]+0.003*[#  11]
          +0.001*[#   9]+0.001*[#  12]
    |psi|^2 = 0.995
==== e(  11) =    -6.60439 eV ==== 
     psi = 0.187*[#  10]+0.187*[#  11]+0.150*[#  13]+0.150*[#  18]+0.081*[#  15]
          +0.081*[#  16]+0.016*[#  14]+0.016*[#  17]+0.014*[#  24]+0.014*[#  25]
          +0.013*[#  32]+0.013*[#  33]+0.009*[#  31]+0.009*[#  34]+0.006*[#   9]
          +0.006*[#  12]+0.005*[#  21]+0.005*[#  22]+0.005*[#  23]+0.005*[#  26]
          +0.004*[#  27]+0.004*[#  28]+0.004*[#   1]+0.004*[#   2]+0.001*[#  19]
          +0.001*[#  20]+0.001*[#  29]+0.001*[#  30]
    |psi|^2 = 0.994
==== e(  12) =    -6.60439 eV ==== 
     psi = 0.187*[#  10]+0.187*[#  11]+0.150*[#  13]+0.150*[#  18]+0.081*[#  15]
          +0.081*[#  16]+0.016*[#  14]+0.016*[#  17]+0.014*[#  32]+0.014*[#  33]
          +0.013*[#  24]+0.013*[#  25]+0.009*[#  23]+0.009*[#  26]+0.006*[#   9]
          +0.006*[#  12]+0.005*[#  29]+0.005*[#  30]+0.005*[#  31]+0.005*[#  34]
          +0.004*[#  19]+0.004*[#  20]+0.004*[#   1]+0.004*[#   2]+0.001*[#  27]
          +0.001*[#  28]+0.001*[#  21]+0.001*[#  22]
    |psi|^2 = 0.994
==== e(  13) =    -6.39383 eV ==== 
     psi = 0.330*[#  14]+0.330*[#  17]+0.104*[#   9]+0.104*[#  12]+0.011*[#  13]
          +0.011*[#  18]+0.010*[#  29]+0.010*[#  30]+0.009*[#  21]+0.009*[#  22]
          +0.008*[#  31]+0.008*[#  34]+0.008*[#  15]+0.008*[#  16]+0.007*[#  10]
          +0.007*[#  11]+0.004*[#  23]+0.004*[#  26]+0.003*[#  32]+0.003*[#  33]
          +0.002*[#  24]+0.002*[#  25]
    |psi|^2 = 0.995
==== e(  14) =    -6.39383 eV ==== 
     psi = 0.330*[#  14]+0.330*[#  17]+0.104*[#   9]+0.104*[#  12]+0.011*[#  13]
          +0.011*[#  18]+0.010*[#  21]+0.010*[#  22]+0.009*[#  29]+0.009*[#  30]
          +0.008*[#  23]+0.008*[#  26]+0.008*[#  15]+0.008*[#  16]+0.007*[#  10]
          +0.007*[#  11]+0.004*[#  31]+0.004*[#  34]+0.003*[#  24]+0.003*[#  25]
          +0.002*[#  32]+0.002*[#  33]
    |psi|^2 = 0.995
==== e(  15) =    -4.96264 eV ==== 
     psi = 0.180*[#  15]+0.180*[#  16]+0.073*[#  29]+0.073*[#  30]+0.057*[#  24]
          +0.057*[#  25]+0.052*[#   1]+0.052*[#   2]+0.031*[#  10]+0.031*[#  11]
          +0.020*[#  31]+0.020*[#  34]+0.019*[#  23]+0.019*[#  26]+0.018*[#  27]
          +0.018*[#  28]+0.016*[#  19]+0.016*[#  20]+0.010*[#  32]+0.010*[#  33]
          +0.006*[#  14]+0.006*[#  17]+0.006*[#  13]+0.006*[#  18]+0.004*[#  21]
          +0.004*[#  22]+0.003*[#   9]+0.003*[#  12]+0.001*[#   3]+0.001*[#   4]
          
    |psi|^2 = 0.995
==== e(  16) =    -4.96264 eV ==== 
     psi = 0.180*[#  15]+0.180*[#  16]+0.073*[#  21]+0.073*[#  22]+0.057*[#  32]
          +0.057*[#  33]+0.052*[#   1]+0.052*[#   2]+0.031*[#  10]+0.031*[#  11]
          +0.020*[#  23]+0.020*[#  26]+0.019*[#  31]+0.019*[#  34]+0.018*[#  19]
          +0.018*[#  20]+0.016*[#  27]+0.016*[#  28]+0.010*[#  24]+0.010*[#  25]
          +0.006*[#  14]+0.006*[#  17]+0.006*[#  13]+0.006*[#  18]+0.004*[#  29]
          +0.004*[#  30]+0.003*[#   9]+0.003*[#  12]+0.001*[#   3]+0.001*[#   4]
          
    |psi|^2 = 0.995
==== e(  17) =    -4.04665 eV ==== 
     psi = 0.174*[#  29]+0.174*[#  30]+0.153*[#  21]+0.153*[#  22]+0.085*[#  32]
          +0.085*[#  33]+0.025*[#   6]+0.025*[#   7]+0.017*[#  15]+0.017*[#  16]
          +0.009*[#  24]+0.009*[#  25]+0.007*[#  14]+0.007*[#  17]+0.006*[#  31]
          +0.006*[#  34]+0.005*[#  10]+0.005*[#  11]+0.005*[#  19]+0.005*[#  20]
          +0.005*[#  23]+0.005*[#  26]+0.003*[#   9]+0.003*[#  12]+0.001*[#  13]
          +0.001*[#  18]+0.001*[#  27]+0.001*[#  28]
    |psi|^2 = 0.996
==== e(  18) =    -4.04665 eV ==== 
     psi = 0.174*[#  21]+0.174*[#  22]+0.153*[#  29]+0.153*[#  30]+0.085*[#  24]
          +0.085*[#  25]+0.025*[#   6]+0.025*[#   7]+0.017*[#  15]+0.017*[#  16]
          +0.009*[#  32]+0.009*[#  33]+0.007*[#  14]+0.007*[#  17]+0.006*[#  23]
          +0.006*[#  26]+0.005*[#  10]+0.005*[#  11]+0.005*[#  27]+0.005*[#  28]
          +0.005*[#  31]+0.005*[#  34]+0.003*[#   9]+0.003*[#  12]+0.001*[#  13]
          +0.001*[#  18]+0.001*[#  19]+0.001*[#  20]
    |psi|^2 = 0.996
==== e(  19) =    -3.61320 eV ==== 
     psi = 0.246*[#  32]+0.246*[#  33]+0.112*[#  24]+0.112*[#  25]+0.049*[#  21]
          +0.049*[#  22]+0.023*[#   3]+0.023*[#   4]+0.021*[#  15]+0.021*[#  16]
          +0.013*[#  31]+0.013*[#  34]+0.009*[#   9]+0.009*[#  12]+0.008*[#  10]
          +0.008*[#  11]+0.003*[#  27]+0.003*[#  28]+0.003*[#  19]+0.003*[#  20]
          +0.003*[#  29]+0.003*[#  30]+0.002*[#  23]+0.002*[#  26]+0.002*[#  14]
          +0.002*[#  17]+0.002*[#   6]+0.002*[#   7]+0.001*[#  13]+0.001*[#  18]
          
    |psi|^2 = 0.996
==== e(  20) =    -3.61320 eV ==== 
     psi = 0.246*[#  24]+0.246*[#  25]+0.112*[#  32]+0.112*[#  33]+0.049*[#  29]
          +0.049*[#  30]+0.023*[#   3]+0.023*[#   4]+0.021*[#  15]+0.021*[#  16]
          +0.013*[#  23]+0.013*[#  26]+0.009*[#   9]+0.009*[#  12]+0.008*[#  10]
          +0.008*[#  11]+0.003*[#  19]+0.003*[#  20]+0.003*[#  21]+0.003*[#  22]
          +0.003*[#  27]+0.003*[#  28]+0.002*[#  31]+0.002*[#  34]+0.002*[#  14]
          +0.002*[#  17]+0.002*[#   6]+0.002*[#   7]+0.001*[#  13]+0.001*[#  18]
          
    |psi|^2 = 0.996
==== e(  21) =    -3.30147 eV ==== 
     psi = 0.200*[#  31]+0.200*[#  34]+0.193*[#  23]+0.193*[#  26]+0.025*[#  32]
          +0.025*[#  33]+0.024*[#  15]+0.024*[#  16]+0.013*[#  13]+0.013*[#  18]
          +0.012*[#  21]+0.012*[#  22]+0.011*[#   5]+0.011*[#   8]+0.008*[#  24]
          +0.008*[#  25]+0.007*[#  10]+0.007*[#  11]+0.003*[#  29]+0.003*[#  30]
          +0.001*[#   3]+0.001*[#   4]+0.001*[#   1]+0.001*[#   2]
    |psi|^2 = 0.995
==== e(  22) =    -3.30147 eV ==== 
     psi = 0.200*[#  23]+0.200*[#  26]+0.193*[#  31]+0.193*[#  34]+0.025*[#  24]
          +0.025*[#  25]+0.024*[#  15]+0.024*[#  16]+0.013*[#  13]+0.013*[#  18]
          +0.012*[#  29]+0.012*[#  30]+0.011*[#   5]+0.011*[#   8]+0.008*[#  32]
          +0.008*[#  33]+0.007*[#  10]+0.007*[#  11]+0.003*[#  21]+0.003*[#  22]
          +0.001*[#   3]+0.001*[#   4]+0.001*[#   1]+0.001*[#   2]
    |psi|^2 = 0.995
==== e(  23) =    -1.07066 eV ==== 
     psi = 0.091*[#  23]+0.091*[#  26]+0.086*[#  31]+0.086*[#  34]+0.047*[#  29]
          +0.047*[#  30]+0.046*[#  13]+0.046*[#  18]+0.042*[#  14]+0.042*[#  17]
          +0.037*[#  21]+0.037*[#  22]+0.036*[#   9]+0.036*[#  12]+0.028*[#  32]
          +0.028*[#  33]+0.015*[#   6]+0.015*[#   7]+0.013*[#   3]+0.013*[#   4]
          +0.013*[#  24]+0.013*[#  25]+0.010*[#  27]+0.010*[#  28]+0.009*[#  15]
          +0.009*[#  16]+0.009*[#  19]+0.009*[#  20]+0.007*[#  10]+0.007*[#  11]
          +0.001*[#   5]+0.001*[#   8]
    |psi|^2 = 0.979
==== e(  24) =    -1.07066 eV ==== 
     psi = 0.091*[#  31]+0.091*[#  34]+0.086*[#  23]+0.086*[#  26]+0.047*[#  21]
          +0.047*[#  22]+0.046*[#  13]+0.046*[#  18]+0.042*[#  14]+0.042*[#  17]
          +0.037*[#  29]+0.037*[#  30]+0.036*[#   9]+0.036*[#  12]+0.028*[#  24]
          +0.028*[#  25]+0.015*[#   6]+0.015*[#   7]+0.013*[#   3]+0.013*[#   4]
          +0.013*[#  32]+0.013*[#  33]+0.010*[#  19]+0.010*[#  20]+0.009*[#  15]
          +0.009*[#  16]+0.009*[#  27]+0.009*[#  28]+0.007*[#  10]+0.007*[#  11]
          +0.001*[#   5]+0.001*[#   8]
    |psi|^2 = 0.979
==== e(  25) =    -0.63348 eV ==== 
     psi = 0.095*[#  23]+0.095*[#  26]+0.080*[#  29]+0.080*[#  30]+0.064*[#  13]
          +0.064*[#  18]+0.053*[#  31]+0.053*[#  34]+0.050*[#  21]+0.050*[#  22]
          +0.041*[#  32]+0.041*[#  33]+0.029*[#  14]+0.029*[#  17]+0.026*[#   9]
          +0.026*[#  12]+0.025*[#  24]+0.025*[#  25]+0.013*[#  15]+0.013*[#  16]
          +0.012*[#  10]+0.012*[#  11]+0.002*[#   5]+0.002*[#   8]+0.002*[#   3]
          +0.002*[#   4]+0.001*[#   6]+0.001*[#   7]
    |psi|^2 = 0.990
==== e(  26) =    -0.63348 eV ==== 
     psi = 0.095*[#  31]+0.095*[#  34]+0.080*[#  21]+0.080*[#  22]+0.064*[#  13]
          +0.064*[#  18]+0.053*[#  23]+0.053*[#  26]+0.050*[#  29]+0.050*[#  30]
          +0.041*[#  24]+0.041*[#  25]+0.029*[#  14]+0.029*[#  17]+0.026*[#   9]
          +0.026*[#  12]+0.025*[#  32]+0.025*[#  33]+0.013*[#  15]+0.013*[#  16]
          +0.012*[#  10]+0.012*[#  11]+0.002*[#   5]+0.002*[#   8]+0.002*[#   3]
          +0.002*[#   4]+0.001*[#   6]+0.001*[#   7]
    |psi|^2 = 0.990
==== e(  27) =     1.35074 eV ==== 
     psi = 0.125*[#   1]+0.125*[#   2]+0.034*[#  27]+0.034*[#  28]+0.030*[#  19]
          +0.030*[#  20]+0.027*[#   5]+0.027*[#   8]+0.024*[#  32]+0.024*[#  33]
          +0.015*[#  21]+0.015*[#  22]+0.014*[#   3]+0.014*[#   4]+0.008*[#  24]
          +0.008*[#  25]+0.005*[#  31]+0.005*[#  34]+0.004*[#   6]+0.004*[#   7]
          +0.003*[#  23]+0.003*[#  26]+0.001*[#  29]+0.001*[#  30]
    |psi|^2 = 0.587
==== e(  28) =     1.35074 eV ==== 
     psi = 0.125*[#   1]+0.125*[#   2]+0.034*[#  19]+0.034*[#  20]+0.030*[#  27]
          +0.030*[#  28]+0.027*[#   5]+0.027*[#   8]+0.024*[#  24]+0.024*[#  25]
          +0.015*[#  29]+0.015*[#  30]+0.014*[#   3]+0.014*[#   4]+0.008*[#  32]
          +0.008*[#  33]+0.005*[#  23]+0.005*[#  26]+0.004*[#   6]+0.004*[#   7]
          +0.003*[#  31]+0.003*[#  34]+0.001*[#  21]+0.001*[#  22]
    |psi|^2 = 0.587
==== e(  29) =     2.06583 eV ==== 
     psi = 0.013*[#   3]+0.013*[#   4]+0.012*[#   6]+0.012*[#   7]+0.002*[#  29]
          +0.002*[#  30]+0.002*[#   1]+0.002*[#   2]+0.001*[#  31]+0.001*[#  34]
          
    |psi|^2 = 0.063
==== e(  30) =     2.06583 eV ==== 
     psi = 0.013*[#   3]+0.013*[#   4]+0.012*[#   6]+0.012*[#   7]+0.002*[#  21]
          +0.002*[#  22]+0.002*[#   1]+0.002*[#   2]+0.001*[#  23]+0.001*[#  26]
          
    |psi|^2 = 0.063

 k =   0.0250000000  0.1587713240 -0.0621166667
==== e(   1) =   -17.40800 eV ==== 
     psi = 0.155*[#  27]+0.155*[#  28]+0.148*[#  19]+0.148*[#  20]+0.114*[#   1]
          +0.114*[#   2]+0.034*[#   5]+0.034*[#   8]+0.019*[#   3]+0.019*[#   4]
          +0.010*[#   6]+0.010*[#   7]+0.007*[#  32]+0.007*[#  33]+0.005*[#  21]
          +0.005*[#  22]+0.002*[#  24]+0.002*[#  25]+0.001*[#  15]+0.001*[#  16]
          +0.001*[#  23]+0.001*[#  26]+0.001*[#  31]+0.001*[#  34]
    |psi|^2 = 0.999
==== e(   2) =   -17.40800 eV ==== 
     psi = 0.155*[#  19]+0.155*[#  20]+0.148*[#  27]+0.148*[#  28]+0.114*[#   1]
          +0.114*[#   2]+0.034*[#   5]+0.034*[#   8]+0.019*[#   3]+0.019*[#   4]
          +0.010*[#   6]+0.010*[#   7]+0.007*[#  24]+0.007*[#  25]+0.005*[#  29]
          +0.005*[#  30]+0.002*[#  32]+0.002*[#  33]+0.001*[#  15]+0.001*[#  16]
          +0.001*[#  23]+0.001*[#  26]+0.001*[#  31]+0.001*[#  34]
    |psi|^2 = 0.999
==== e(   3) =   -15.77526 eV ==== 
     psi = 0.192*[#  19]+0.192*[#  20]+0.187*[#  27]+0.187*[#  28]+0.070*[#   6]
          +0.070*[#   7]+0.037*[#   3]+0.037*[#   4]+0.004*[#  14]+0.004*[#  17]
          +0.003*[#   9]+0.003*[#  12]+0.003*[#  10]+0.003*[#  11]+0.003*[#  13]
          +0.003*[#  18]+0.002*[#  15]+0.002*[#  16]
    |psi|^2 = 0.999
==== e(   4) =   -15.77526 eV ==== 
     psi = 0.192*[#  27]+0.192*[#  28]+0.187*[#  19]+0.187*[#  20]+0.070*[#   6]
          +0.070*[#   7]+0.037*[#   3]+0.037*[#   4]+0.004*[#  14]+0.004*[#  17]
          +0.003*[#   9]+0.003*[#  12]+0.003*[#  10]+0.003*[#  11]+0.003*[#  13]
          +0.003*[#  18]+0.002*[#  15]+0.002*[#  16]
    |psi|^2 = 0.999
==== e(   5) =    -8.92589 eV ==== 
     psi = 0.287*[#   9]+0.287*[#  12]+0.060*[#  31]+0.060*[#  34]+0.060*[#  23]
          +0.060*[#  26]+0.050*[#  14]+0.050*[#  17]+0.008*[#  13]+0.008*[#  18]
          +0.007*[#  32]+0.007*[#  33]+0.006*[#  24]+0.006*[#  25]+0.005*[#   6]
          +0.005*[#   7]+0.004*[#  29]+0.004*[#  30]+0.004*[#   3]+0.004*[#   4]
          +0.002*[#  21]+0.002*[#  22]+0.002*[#  10]+0.002*[#  11]
    |psi|^2 = 0.995
==== e(   6) =    -8.92589 eV ==== 
     psi = 0.287*[#   9]+0.287*[#  12]+0.060*[#  23]+0.060*[#  26]+0.060*[#  31]
          +0.060*[#  34]+0.050*[#  14]+0.050*[#  17]+0.008*[#  13]+0.008*[#  18]
          +0.007*[#  24]+0.007*[#  25]+0.006*[#  32]+0.006*[#  33]+0.005*[#   6]
          +0.005*[#   7]+0.004*[#  21]+0.004*[#  22]+0.004*[#   3]+0.004*[#   4]
          +0.002*[#  29]+0.002*[#  30]+0.002*[#  10]+0.002*[#  11]
    |psi|^2 = 0.995
==== e(   7) =    -8.66871 eV ==== 
     psi = 0.212*[#  10]+0.212*[#  11]+0.101*[#  13]+0.101*[#  18]+0.087*[#  32]
          +0.087*[#  33]+0.053*[#  24]+0.053*[#  25]+0.012*[#  21]+0.012*[#  22]
          +0.007*[#  27]+0.007*[#  28]+0.006*[#   9]+0.006*[#  12]+0.006*[#  31]
          +0.006*[#  34]+0.004*[#  14]+0.004*[#  17]+0.003*[#  19]+0.003*[#  20]
          +0.002*[#   3]+0.002*[#   4]+0.002*[#   6]+0.002*[#   7]+0.002*[#  29]
          +0.002*[#  30]+0.001*[#   1]+0.001*[#   2]
    |psi|^2 = 0.995
==== e(   8) =    -8.66871 eV ==== 
     psi = 0.212*[#  10]+0.212*[#  11]+0.101*[#  13]+0.101*[#  18]+0.087*[#  24]
          +0.087*[#  25]+0.053*[#  32]+0.053*[#  33]+0.012*[#  29]+0.012*[#  30]
          +0.007*[#  19]+0.007*[#  20]+0.006*[#   9]+0.006*[#  12]+0.006*[#  23]
          +0.006*[#  26]+0.004*[#  14]+0.004*[#  17]+0.003*[#  27]+0.003*[#  28]
          +0.002*[#   3]+0.002*[#   4]+0.002*[#   6]+0.002*[#   7]+0.002*[#  21]
          +0.002*[#  22]+0.001*[#   1]+0.001*[#   2]
    |psi|^2 = 0.995
==== e(   9) =    -8.39423 eV ==== 
     psi = 0.129*[#  15]+0.129*[#  16]+0.099*[#  29]+0.099*[#  30]+0.087*[#  21]
          +0.087*[#  22]+0.082*[#  13]+0.082*[#  18]+0.031*[#  32]+0.031*[#  33]
          +0.015*[#  10]+0.015*[#  11]+0.014*[#  27]+0.014*[#  28]+0.013*[#  19]
          +0.013*[#  20]+0.011*[#  24]+0.011*[#  25]+0.006*[#   1]+0.006*[#   2]
          +0.004*[#   9]+0.004*[#  12]+0.003*[#  14]+0.003*[#  17]+0.002*[#  31]
          +0.002*[#  34]+0.001*[#   6]+0.001*[#   7]
    |psi|^2 = 0.995
==== e(  10) =    -8.39423 eV ==== 
     psi = 0.129*[#  15]+0.129*[#  16]+0.099*[#  21]+0.099*[#  22]+0.087*[#  29]
          +0.087*[#  30]+0.082*[#  13]+0.082*[#  18]+0.031*[#  24]+0.031*[#  25]
          +0.015*[#  10]+0.015*[#  11]+0.014*[#  19]+0.014*[#  20]+0.013*[#  27]
          +0.013*[#  28]+0.011*[#  32]+0.011*[#  33]+0.006*[#   1]+0.006*[#   2]
          +0.004*[#   9]+0.004*[#  12]+0.003*[#  14]+0.003*[#  17]+0.002*[#  23]
          +0.002*[#  26]+0.001*[#   6]+0.001*[#   7]
    |psi|^2 = 0.995
==== e(  11) =    -6.77496 eV ==== 
     psi = 0.145*[#  10]+0.145*[#  11]+0.101*[#  13]+0.101*[#  18]+0.066*[#  14]
          +0.066*[#  17]+0.059*[#  15]+0.059*[#  16]+0.024*[#   9]+0.024*[#  12]
          +0.023*[#  31]+0.023*[#  34]+0.017*[#  32]+0.017*[#  33]+0.014*[#  21]
          +0.014*[#  22]+0.011*[#  29]+0.011*[#  30]+0.010*[#  23]+0.010*[#  26]
          +0.009*[#  24]+0.009*[#  25]+0.008*[#   1]+0.008*[#   2]+0.007*[#  27]
          +0.007*[#  28]+0.002*[#  19]+0.002*[#  20]
    |psi|^2 = 0.995
==== e(  12) =    -6.77496 eV ==== 
     psi = 0.145*[#  10]+0.145*[#  11]+0.101*[#  13]+0.101*[#  18]+0.066*[#  14]
          +0.066*[#  17]+0.059*[#  15]+0.059*[#  16]+0.024*[#   9]+0.024*[#  12]
          +0.023*[#  23]+0.023*[#  26]+0.017*[#  24]+0.017*[#  25]+0.014*[#  29]
          +0.014*[#  30]+0.011*[#  21]+0.011*[#  22]+0.010*[#  31]+0.010*[#  34]
          +0.009*[#  32]+0.009*[#  33]+0.008*[#   1]+0.008*[#   2]+0.007*[#  19]
          +0.007*[#  20]+0.002*[#  27]+0.002*[#  28]
    |psi|^2 = 0.995
==== e(  13) =    -6.48600 eV ==== 
     psi = 0.247*[#  14]+0.247*[#  17]+0.074*[#   9]+0.074*[#  12]+0.047*[#  13]
          +0.047*[#  18]+0.033*[#  15]+0.033*[#  16]+0.032*[#  10]+0.032*[#  11]
          +0.016*[#  29]+0.016*[#  30]+0.014*[#  21]+0.014*[#  22]+0.012*[#  31]
          +0.012*[#  34]+0.011*[#  32]+0.011*[#  33]+0.006*[#  24]+0.006*[#  25]
          +0.002*[#  23]+0.002*[#  26]+0.001*[#   6]+0.001*[#   7]
    |psi|^2 = 0.995
==== e(  14) =    -6.48600 eV ==== 
     psi = 0.247*[#  14]+0.247*[#  17]+0.074*[#   9]+0.074*[#  12]+0.047*[#  13]
          +0.047*[#  18]+0.033*[#  15]+0.033*[#  16]+0.032*[#  10]+0.032*[#  11]
          +0.016*[#  21]+0.016*[#  22]+0.014*[#  29]+0.014*[#  30]+0.012*[#  23]
          +0.012*[#  26]+0.011*[#  24]+0.011*[#  25]+0.006*[#  32]+0.006*[#  33]
          +0.002*[#  31]+0.002*[#  34]+0.001*[#   6]+0.001*[#   7]
    |psi|^2 = 0.995
==== e(  15) =    -5.27571 eV ==== 
     psi = 0.145*[#  15]+0.145*[#  16]+0.063*[#  29]+0.063*[#  30]+0.059*[#   1]
          +0.059*[#   2]+0.047*[#  24]+0.047*[#  25]+0.031*[#  31]+0.031*[#  34]
          +0.031*[#  10]+0.031*[#  11]+0.028*[#  23]+0.028*[#  26]+0.024*[#  14]
          +0.024*[#  17]+0.019*[#  27]+0.019*[#  28]+0.015*[#  19]+0.015*[#  20]
          +0.014*[#   9]+0.014*[#  12]+0.012*[#  13]+0.012*[#  18]+0.007*[#  21]
          +0.007*[#  22]+0.002*[#  32]+0.002*[#  33]+0.001*[#   3]+0.001*[#   4]
          
    |psi|^2 = 0.996
==== e(  16) =    -5.27571 eV ==== 
     psi = 0.145*[#  15]+0.145*[#  16]+0.063*[#  21]+0.063*[#  22]+0.059*[#   1]
          +0.059*[#   2]+0.047*[#  32]+0.047*[#  33]+0.031*[#  23]+0.031*[#  26]
          +0.031*[#  10]+0.031*[#  11]+0.028*[#  31]+0.028*[#  34]+0.024*[#  14]
          +0.024*[#  17]+0.019*[#  19]+0.019*[#  20]+0.015*[#  27]+0.015*[#  28]
          +0.014*[#   9]+0.014*[#  12]+0.012*[#  13]+0.012*[#  18]+0.007*[#  29]
          +0.007*[#  30]+0.002*[#  24]+0.002*[#  25]+0.001*[#   3]+0.001*[#   4]
          
    |psi|^2 = 0.996
==== e(  17) =    -3.95468 eV ==== 
     psi = 0.174*[#  29]+0.174*[#  30]+0.131*[#  21]+0.131*[#  22]+0.057*[#  32]
          +0.057*[#  33]+0.031*[#  15]+0.031*[#  16]+0.021*[#  23]+0.021*[#  26]
          +0.015*[#   6]+0.015*[#   7]+0.014*[#  31]+0.014*[#  34]+0.013*[#  10]
          +0.013*[#  11]+0.013*[#  14]+0.013*[#  17]+0.011*[#   9]+0.011*[#  12]
          +0.008*[#  24]+0.008*[#  25]+0.006*[#   3]+0.006*[#   4]+0.002*[#  19]
          +0.002*[#  20]+0.001*[#   5]+0.001*[#   8]+0.001*[#  13]+0.001*[#  18]
          
    |psi|^2 = 0.995
==== e(  18) =    -3.95468 eV ==== 
     psi = 0.174*[#  21]+0.174*[#  22]+0.131*[#  29]+0.131*[#  30]+0.057*[#  24]
          +0.057*[#  25]+0.031*[#  15]+0.031*[#  16]+0.021*[#  31]+0.021*[#  34]
          +0.015*[#   6]+0.015*[#   7]+0.014*[#  23]+0.014*[#  26]+0.013*[#  10]
          +0.013*[#  11]+0.013*[#  14]+0.013*[#  17]+0.011*[#   9]+0.011*[#  12]
          +0.008*[#  32]+0.008*[#  33]+0.006*[#   3]+0.006*[#   4]+0.002*[#  27]
          +0.002*[#  28]+0.001*[#   5]+0.001*[#   8]+0.001*[#  13]+0.001*[#  18]
          
    |psi|^2 = 0.995
==== e(  19) =    -3.58356 eV ==== 
     psi = 0.229*[#  32]+0.229*[#  33]+0.124*[#  24]+0.124*[#  25]+0.027*[#  15]
          +0.027*[#  16]+0.023*[#  29]+0.023*[#  30]+0.020*[#  31]+0.020*[#  34]
          +0.015*[#  21]+0.015*[#  22]+0.013*[#   3]+0.013*[#   4]+0.011*[#  23]
          +0.011*[#  26]+0.010*[#  10]+0.010*[#  11]+0.010*[#   9]+0.010*[#  12]
          +0.004*[#   6]+0.004*[#   7]+0.003*[#  27]+0.003*[#  28]+0.002*[#  13]
          +0.002*[#  18]+0.002*[#  19]+0.002*[#  20]+0.001*[#  14]+0.001*[#  17]
          
    |psi|^2 = 0.995
==== e(  20) =    -3.58356 eV ==== 
     psi = 0.229*[#  24]+0.229*[#  25]+0.124*[#  32]+0.124*[#  33]+0.027*[#  15]
          +0.027*[#  16]+0.023*[#  21]+0.023*[#  22]+0.020*[#  23]+0.020*[#  26]
          +0.015*[#  29]+0.015*[#  30]+0.013*[#   3]+0.013*[#   4]+0.011*[#  31]
          +0.011*[#  34]+0.010*[#  10]+0.010*[#  11]+0.010*[#   9]+0.010*[#  12]
          +0.004*[#   6]+0.004*[#   7]+0.003*[#  19]+0.003*[#  20]+0.002*[#  13]
          +0.002*[#  18]+0.002*[#  27]+0.002*[#  28]+0.001*[#  14]+0.001*[#  17]
          
    |psi|^2 = 0.995
==== e(  21) =    -3.35789 eV ==== 
     psi = 0.157*[#  31]+0.157*[#  34]+0.147*[#  23]+0.147*[#  26]+0.062*[#  32]
          +0.062*[#  33]+0.036*[#  15]+0.036*[#  16]+0.030*[#  13]+0.030*[#  18]
          +0.017*[#  21]+0.017*[#  22]+0.017*[#  24]+0.017*[#  25]+0.009*[#   5]
          +0.009*[#   8]+0.009*[#  10]+0.009*[#  11]+0.005*[#  29]+0.005*[#  30]
          +0.005*[#   3]+0.005*[#   4]+0.002*[#   9]+0.002*[#  12]+0.001*[#   1]
          +0.001*[#   2]+0.001*[#  27]+0.001*[#  28]
    |psi|^2 = 0.995
==== e(  22) =    -3.35789 eV ==== 
     psi = 0.157*[#  23]+0.157*[#  26]+0.147*[#  31]+0.147*[#  34]+0.062*[#  24]
          +0.062*[#  25]+0.036*[#  15]+0.036*[#  16]+0.030*[#  13]+0.030*[#  18]
          +0.017*[#  29]+0.017*[#  30]+0.017*[#  32]+0.017*[#  33]+0.009*[#   5]
          +0.009*[#   8]+0.009*[#  10]+0.009*[#  11]+0.005*[#  21]+0.005*[#  22]
          +0.005*[#   3]+0.005*[#   4]+0.002*[#   9]+0.002*[#  12]+0.001*[#   1]
          +0.001*[#   2]+0.001*[#  19]+0.001*[#  20]
    |psi|^2 = 0.995
==== e(  23) =    -1.57669 eV ==== 
     psi = 0.081*[#  31]+0.081*[#  34]+0.061*[#  23]+0.061*[#  26]+0.051*[#  13]
          +0.051*[#  18]+0.045*[#  14]+0.045*[#  17]+0.045*[#  29]+0.045*[#  30]
          +0.041*[#  21]+0.041*[#  22]+0.032*[#   9]+0.032*[#  12]+0.023*[#   6]
          +0.023*[#   7]+0.023*[#  24]+0.023*[#  25]+0.017*[#   3]+0.017*[#   4]
          +0.017*[#  27]+0.017*[#  28]+0.016*[#  32]+0.016*[#  33]+0.015*[#  19]
          +0.015*[#  20]+0.013*[#  15]+0.013*[#  16]+0.008*[#  10]+0.008*[#  11]
          +0.003*[#   5]+0.003*[#   8]
    |psi|^2 = 0.979
==== e(  24) =    -1.57669 eV ==== 
     psi = 0.081*[#  23]+0.081*[#  26]+0.061*[#  31]+0.061*[#  34]+0.051*[#  13]
          +0.051*[#  18]+0.045*[#  14]+0.045*[#  17]+0.045*[#  21]+0.045*[#  22]
          +0.041*[#  29]+0.041*[#  30]+0.032*[#   9]+0.032*[#  12]+0.023*[#   6]
          +0.023*[#   7]+0.023*[#  32]+0.023*[#  33]+0.017*[#   3]+0.017*[#   4]
          +0.017*[#  19]+0.017*[#  20]+0.016*[#  24]+0.016*[#  25]+0.015*[#  27]
          +0.015*[#  28]+0.013*[#  15]+0.013*[#  16]+0.008*[#  10]+0.008*[#  11]
          +0.003*[#   5]+0.003*[#   8]
    |psi|^2 = 0.979
==== e(  25) =    -0.77223 eV ==== 
     psi = 0.093*[#  23]+0.093*[#  26]+0.070*[#  29]+0.070*[#  30]+0.067*[#  31]
          +0.067*[#  34]+0.054*[#  13]+0.054*[#  18]+0.051*[#  21]+0.051*[#  22]
          +0.038*[#  32]+0.038*[#  33]+0.034*[#  14]+0.034*[#  17]+0.025*[#   9]
          +0.025*[#  12]+0.024*[#  24]+0.024*[#  25]+0.015*[#  15]+0.015*[#  16]
          +0.014*[#  10]+0.014*[#  11]+0.003*[#   5]+0.003*[#   8]+0.003*[#   3]
          +0.003*[#   4]+0.002*[#   6]+0.002*[#   7]
    |psi|^2 = 0.989
==== e(  26) =    -0.77223 eV ==== 
     psi = 0.093*[#  31]+0.093*[#  34]+0.070*[#  21]+0.070*[#  22]+0.067*[#  23]
          +0.067*[#  26]+0.054*[#  13]+0.054*[#  18]+0.051*[#  29]+0.051*[#  30]
          +0.038*[#  24]+0.038*[#  25]+0.034*[#  14]+0.034*[#  17]+0.025*[#   9]
          +0.025*[#  12]+0.024*[#  32]+0.024*[#  33]+0.015*[#  15]+0.015*[#  16]
          +0.014*[#  10]+0.014*[#  11]+0.003*[#   5]+0.003*[#   8]+0.003*[#   3]
          +0.003*[#   4]+0.002*[#   6]+0.002*[#   7]
    |psi|^2 = 0.989
==== e(  27) =     1.71885 eV ==== 
     psi = 0.073*[#   1]+0.073*[#   2]+0.042*[#   5]+0.042*[#   8]+0.030*[#  27]
          +0.030*[#  28]+0.026*[#  19]+0.026*[#  20]+0.021*[#   3]+0.021*[#   4]
          +0.021*[#  32]+0.021*[#  33]+0.014*[#  21]+0.014*[#  22]+0.008*[#   6]
          +0.008*[#   7]+0.007*[#  31]+0.007*[#  34]+0.005*[#  23]+0.005*[#  26]
          +0.004*[#  24]+0.004*[#  25]
    |psi|^2 = 0.504
==== e(  28) =     1.71885 eV ==== 
     psi = 0.073*[#   1]+0.073*[#   2]+0.042*[#   5]+0.042*[#   8]+0.030*[#  19]
          +0.030*[#  20]+0.026*[#  27]+0.026*[#  28]+0.021*[#   3]+0.021*[#   4]
          +0.021*[#  24]+0.021*[#  25]+0.014*[#  29]+0.014*[#  30]+0.008*[#   6]
          +0.008*[#   7]+0.007*[#  23]+0.007*[#  26]+0.005*[#  31]+0.005*[#  34]
          +0.004*[#  32]+0.004*[#  33]
    |psi|^2 = 0.504
==== e(  29) =     2.25025 eV ==== 
     psi = 0.037*[#   6]+0.037*[#   7]+0.003*[#  27]+0.003*[#  28]+0.003*[#   1]
          +0.003*[#   2]+0.001*[#  19]+0.001*[#  20]+0.001*[#  21]+0.001*[#  22]
          +0.001*[#  29]+0.001*[#  30]
    |psi|^2 = 0.098
==== e(  30) =     2.25025 eV ==== 
     psi = 0.037*[#   6]+0.037*[#   7]+0.003*[#  19]+0.003*[#  20]+0.003*[#   1]
          +0.003*[#   2]+0.001*[#  27]+0.001*[#  28]+0.001*[#  21]+0.001*[#  22]
          +0.001*[#  29]+0.001*[#  30]
    |psi|^2 = 0.098

 k =   0.0250000000  0.2165063509 -0.0621166667
==== e(   1) =   -17.24603 eV ==== 
     psi = 0.152*[#  27]+0.152*[#  28]+0.147*[#  19]+0.147*[#  20]+0.091*[#   1]
          +0.091*[#   2]+0.048*[#   5]+0.048*[#   8]+0.028*[#   3]+0.028*[#   4]
          +0.015*[#   6]+0.015*[#   7]+0.006*[#  32]+0.006*[#  33]+0.004*[#  21]
          +0.004*[#  22]+0.003*[#  24]+0.003*[#  25]+0.001*[#  23]+0.001*[#  26]
          +0.001*[#  31]+0.001*[#  34]+0.001*[#  15]+0.001*[#  16]+0.001*[#  29]
          +0.001*[#  30]
    |psi|^2 = 0.999
==== e(   2) =   -17.24603 eV ==== 
     psi = 0.152*[#  19]+0.152*[#  20]+0.147*[#  27]+0.147*[#  28]+0.091*[#   1]
          +0.091*[#   2]+0.048*[#   5]+0.048*[#   8]+0.028*[#   3]+0.028*[#   4]
          +0.015*[#   6]+0.015*[#   7]+0.006*[#  24]+0.006*[#  25]+0.004*[#  29]
          +0.004*[#  30]+0.003*[#  32]+0.003*[#  33]+0.001*[#  23]+0.001*[#  26]
          +0.001*[#  31]+0.001*[#  34]+0.001*[#  15]+0.001*[#  16]+0.001*[#  21]
          +0.001*[#  22]
    |psi|^2 = 0.999
==== e(   3) =   -15.79162 eV ==== 
     psi = 0.196*[#  19]+0.196*[#  20]+0.188*[#  27]+0.188*[#  28]+0.060*[#   6]
          +0.060*[#   7]+0.032*[#   3]+0.032*[#   4]+0.007*[#  14]+0.007*[#  17]
          +0.005*[#   9]+0.005*[#  12]+0.005*[#  13]+0.005*[#  18]+0.004*[#  10]
          +0.004*[#  11]+0.003*[#  15]+0.003*[#  16]
    |psi|^2 = 0.999
==== e(   4) =   -15.79162 eV ==== 
     psi = 0.196*[#  27]+0.196*[#  28]+0.188*[#  19]+0.188*[#  20]+0.060*[#   6]
          +0.060*[#   7]+0.032*[#   3]+0.032*[#   4]+0.007*[#  14]+0.007*[#  17]
          +0.005*[#   9]+0.005*[#  12]+0.005*[#  13]+0.005*[#  18]+0.004*[#  10]
          +0.004*[#  11]+0.003*[#  15]+0.003*[#  16]
    |psi|^2 = 0.999
==== e(   5) =    -8.89397 eV ==== 
     psi = 0.266*[#   9]+0.266*[#  12]+0.058*[#  31]+0.058*[#  34]+0.056*[#  23]
          +0.056*[#  26]+0.038*[#  14]+0.038*[#  17]+0.017*[#  13]+0.017*[#  18]
          +0.015*[#  24]+0.015*[#  25]+0.011*[#  32]+0.011*[#  33]+0.010*[#  29]
          +0.010*[#  30]+0.008*[#   6]+0.008*[#   7]+0.007*[#   3]+0.007*[#   4]
          +0.004*[#  10]+0.004*[#  11]+0.003*[#  21]+0.003*[#  22]+0.001*[#  27]
          +0.001*[#  28]
    |psi|^2 = 0.994
==== e(   6) =    -8.89397 eV ==== 
     psi = 0.266*[#   9]+0.266*[#  12]+0.058*[#  23]+0.058*[#  26]+0.056*[#  31]
          +0.056*[#  34]+0.038*[#  14]+0.038*[#  17]+0.017*[#  13]+0.017*[#  18]
          +0.015*[#  32]+0.015*[#  33]+0.011*[#  24]+0.011*[#  25]+0.010*[#  21]
          +0.010*[#  22]+0.008*[#   6]+0.008*[#   7]+0.007*[#   3]+0.007*[#   4]
          +0.004*[#  10]+0.004*[#  11]+0.003*[#  29]+0.003*[#  30]+0.001*[#  19]
          +0.001*[#  20]
    |psi|^2 = 0.994
==== e(   7) =    -8.58901 eV ==== 
     psi = 0.196*[#  10]+0.196*[#  11]+0.104*[#  13]+0.104*[#  18]+0.076*[#  32]
          +0.076*[#  33]+0.039*[#  24]+0.039*[#  25]+0.024*[#  21]+0.024*[#  22]
          +0.013*[#   9]+0.013*[#  12]+0.013*[#  31]+0.013*[#  34]+0.010*[#  14]
          +0.010*[#  17]+0.006*[#  27]+0.006*[#  28]+0.004*[#  29]+0.004*[#  30]
          +0.003*[#   3]+0.003*[#   4]+0.003*[#   6]+0.003*[#   7]+0.002*[#  15]
          +0.002*[#  16]+0.001*[#  19]+0.001*[#  20]+0.001*[#  23]+0.001*[#  26]
          
    |psi|^2 = 0.995
==== e(   8) =    -8.58901 eV ==== 
     psi = 0.196*[#  10]+0.196*[#  11]+0.104*[#  13]+0.104*[#  18]+0.076*[#  24]
          +0.076*[#  25]+0.039*[#  32]+0.039*[#  33]+0.024*[#  29]+0.024*[#  30]
          +0.013*[#   9]+0.013*[#  12]+0.013*[#  23]+0.013*[#  26]+0.010*[#  14]
          +0.010*[#  17]+0.006*[#  19]+0.006*[#  20]+0.004*[#  21]+0.004*[#  22]
          +0.003*[#   3]+0.003*[#   4]+0.003*[#   6]+0.003*[#   7]+0.002*[#  15]
          +0.002*[#  16]+0.001*[#  27]+0.001*[#  28]+0.001*[#  31]+0.001*[#  34]
          
    |psi|^2 = 0.995
==== e(   9) =    -8.26952 eV ==== 
     psi = 0.117*[#  15]+0.117*[#  16]+0.089*[#  21]+0.089*[#  22]+0.080*[#  29]
          +0.080*[#  30]+0.057*[#  13]+0.057*[#  18]+0.042*[#  32]+0.042*[#  33]
          +0.031*[#  10]+0.031*[#  11]+0.016*[#  27]+0.016*[#  28]+0.016*[#  24]
          +0.016*[#  25]+0.016*[#  19]+0.016*[#  20]+0.010*[#  14]+0.010*[#  17]
          +0.009*[#   1]+0.009*[#   2]+0.007*[#   9]+0.007*[#  12]+0.006*[#  31]
          +0.006*[#  34]+0.001*[#   6]+0.001*[#   7]
    |psi|^2 = 0.995
==== e(  10) =    -8.26952 eV ==== 
     psi = 0.117*[#  15]+0.117*[#  16]+0.089*[#  29]+0.089*[#  30]+0.080*[#  21]
          +0.080*[#  22]+0.057*[#  13]+0.057*[#  18]+0.042*[#  24]+0.042*[#  25]
          +0.031*[#  10]+0.031*[#  11]+0.016*[#  19]+0.016*[#  20]+0.016*[#  32]
          +0.016*[#  33]+0.016*[#  27]+0.016*[#  28]+0.010*[#  14]+0.010*[#  17]
          +0.009*[#   1]+0.009*[#   2]+0.007*[#   9]+0.007*[#  12]+0.006*[#  23]
          +0.006*[#  26]+0.001*[#   6]+0.001*[#   7]
    |psi|^2 = 0.995
==== e(  11) =    -7.07158 eV ==== 
     psi = 0.104*[#  10]+0.104*[#  11]+0.090*[#  14]+0.090*[#  17]+0.053*[#  13]
          +0.053*[#  18]+0.050*[#  15]+0.050*[#  16]+0.035*[#  31]+0.035*[#  34]
          +0.035*[#  29]+0.035*[#  30]+0.029*[#   9]+0.029*[#  12]+0.023*[#  21]
          +0.023*[#  22]+0.020*[#  32]+0.020*[#  33]+0.018*[#   1]+0.018*[#   2]
          +0.018*[#  23]+0.018*[#  26]+0.009*[#  24]+0.009*[#  25]+0.009*[#  27]
          +0.009*[#  28]+0.004*[#  19]+0.004*[#  20]
    |psi|^2 = 0.995
==== e(  12) =    -7.07158 eV ==== 
     psi = 0.104*[#  10]+0.104*[#  11]+0.090*[#  14]+0.090*[#  17]+0.053*[#  13]
          +0.053*[#  18]+0.050*[#  15]+0.050*[#  16]+0.035*[#  23]+0.035*[#  26]
          +0.035*[#  21]+0.035*[#  22]+0.029*[#   9]+0.029*[#  12]+0.023*[#  29]
          +0.023*[#  30]+0.020*[#  24]+0.020*[#  25]+0.018*[#   1]+0.018*[#   2]
          +0.018*[#  31]+0.018*[#  34]+0.009*[#  19]+0.009*[#  20]+0.009*[#  32]
          +0.009*[#  33]+0.004*[#  27]+0.004*[#  28]
    |psi|^2 = 0.995
==== e(  13) =    -6.55486 eV ==== 
     psi = 0.175*[#  14]+0.175*[#  17]+0.079*[#  13]+0.079*[#  18]+0.055*[#  15]
          +0.055*[#  16]+0.054*[#   9]+0.054*[#  12]+0.046*[#  10]+0.046*[#  11]
          +0.019*[#  29]+0.019*[#  30]+0.019*[#  31]+0.019*[#  34]+0.019*[#  32]
          +0.019*[#  33]+0.014*[#  21]+0.014*[#  22]+0.008*[#  24]+0.008*[#  25]
          +0.005*[#  23]+0.005*[#  26]+0.002*[#   6]+0.002*[#   7]+0.001*[#   5]
          +0.001*[#   8]
    |psi|^2 = 0.996
==== e(  14) =    -6.55486 eV ==== 
     psi = 0.175*[#  14]+0.175*[#  17]+0.079*[#  13]+0.079*[#  18]+0.055*[#  15]
          +0.055*[#  16]+0.054*[#   9]+0.054*[#  12]+0.046*[#  10]+0.046*[#  11]
          +0.019*[#  21]+0.019*[#  22]+0.019*[#  23]+0.019*[#  26]+0.019*[#  24]
          +0.019*[#  25]+0.014*[#  29]+0.014*[#  30]+0.008*[#  32]+0.008*[#  33]
          +0.005*[#  31]+0.005*[#  34]+0.002*[#   6]+0.002*[#   7]+0.001*[#   5]
          +0.001*[#   8]
    |psi|^2 = 0.996
==== e(  15) =    -5.54251 eV ==== 
     psi = 0.114*[#  15]+0.114*[#  16]+0.058*[#   1]+0.058*[#   2]+0.054*[#  14]
          +0.054*[#  17]+0.039*[#  10]+0.039*[#  11]+0.038*[#  29]+0.038*[#  30]
          +0.034*[#  31]+0.034*[#  34]+0.030*[#   9]+0.030*[#  12]+0.030*[#  24]
          +0.030*[#  25]+0.026*[#  23]+0.026*[#  26]+0.023*[#  13]+0.023*[#  18]
          +0.018*[#  27]+0.018*[#  28]+0.014*[#  19]+0.014*[#  20]+0.013*[#  21]
          +0.013*[#  22]+0.005*[#  32]+0.005*[#  33]
    |psi|^2 = 0.995
==== e(  16) =    -5.54251 eV ==== 
     psi = 0.114*[#  15]+0.114*[#  16]+0.058*[#   1]+0.058*[#   2]+0.054*[#  14]
          +0.054*[#  17]+0.039*[#  10]+0.039*[#  11]+0.038*[#  21]+0.038*[#  22]
          +0.034*[#  23]+0.034*[#  26]+0.030*[#   9]+0.030*[#  12]+0.030*[#  32]
          +0.030*[#  33]+0.026*[#  31]+0.026*[#  34]+0.023*[#  13]+0.023*[#  18]
          +0.018*[#  19]+0.018*[#  20]+0.014*[#  27]+0.014*[#  28]+0.013*[#  29]
          +0.013*[#  30]+0.005*[#  24]+0.005*[#  25]
    |psi|^2 = 0.995
==== e(  17) =    -4.00154 eV ==== 
     psi = 0.145*[#  29]+0.145*[#  30]+0.076*[#  21]+0.076*[#  22]+0.048*[#  23]
          +0.048*[#  26]+0.046*[#  15]+0.046*[#  16]+0.037*[#  24]+0.037*[#  25]
          +0.027*[#   9]+0.027*[#  12]+0.027*[#  32]+0.027*[#  33]+0.025*[#  31]
          +0.025*[#  34]+0.024*[#  10]+0.024*[#  11]+0.016*[#   3]+0.016*[#   4]
          +0.014*[#  14]+0.014*[#  17]+0.007*[#   6]+0.007*[#   7]+0.003*[#   5]
          +0.003*[#   8]
    |psi|^2 = 0.995
==== e(  18) =    -4.00154 eV ==== 
     psi = 0.145*[#  21]+0.145*[#  22]+0.076*[#  29]+0.076*[#  30]+0.048*[#  31]
          +0.048*[#  34]+0.046*[#  15]+0.046*[#  16]+0.037*[#  32]+0.037*[#  33]
          +0.027*[#   9]+0.027*[#  12]+0.027*[#  24]+0.027*[#  25]+0.025*[#  23]
          +0.025*[#  26]+0.024*[#  10]+0.024*[#  11]+0.016*[#   3]+0.016*[#   4]
          +0.014*[#  14]+0.014*[#  17]+0.007*[#   6]+0.007*[#   7]+0.003*[#   5]
          +0.003*[#   8]
    |psi|^2 = 0.995
==== e(  19) =    -3.57513 eV ==== 
     psi = 0.118*[#  32]+0.118*[#  33]+0.106*[#  29]+0.106*[#  30]+0.085*[#  24]
          +0.085*[#  25]+0.064*[#  23]+0.064*[#  26]+0.043*[#  15]+0.043*[#  16]
          +0.026*[#  31]+0.026*[#  34]+0.018*[#  13]+0.018*[#  18]+0.012*[#  10]
          +0.012*[#  11]+0.011*[#  21]+0.011*[#  22]+0.003*[#   5]+0.003*[#   8]
          +0.002*[#   6]+0.002*[#   7]+0.002*[#   1]+0.002*[#   2]+0.002*[#   9]
          +0.002*[#  12]+0.001*[#  14]+0.001*[#  17]
    |psi|^2 = 0.994
==== e(  20) =    -3.57513 eV ==== 
     psi = 0.118*[#  24]+0.118*[#  25]+0.106*[#  21]+0.106*[#  22]+0.085*[#  32]
          +0.085*[#  33]+0.064*[#  31]+0.064*[#  34]+0.043*[#  15]+0.043*[#  16]
          +0.026*[#  23]+0.026*[#  26]+0.018*[#  13]+0.018*[#  18]+0.012*[#  10]
          +0.012*[#  11]+0.011*[#  29]+0.011*[#  30]+0.003*[#   5]+0.003*[#   8]
          +0.002*[#   6]+0.002*[#   7]+0.002*[#   1]+0.002*[#   2]+0.002*[#   9]
          +0.002*[#  12]+0.001*[#  14]+0.001*[#  17]
    |psi|^2 = 0.994
==== e(  21) =    -3.42404 eV ==== 
     psi = 0.151*[#  32]+0.151*[#  33]+0.103*[#  23]+0.103*[#  26]+0.077*[#  31]
          +0.077*[#  34]+0.069*[#  24]+0.069*[#  25]+0.036*[#  13]+0.036*[#  18]
          +0.025*[#  15]+0.025*[#  16]+0.008*[#   3]+0.008*[#   4]+0.007*[#   9]
          +0.007*[#  12]+0.006*[#   5]+0.006*[#   8]+0.004*[#  10]+0.004*[#  11]
          +0.003*[#  21]+0.003*[#  22]+0.003*[#  29]+0.003*[#  30]+0.002*[#  14]
          +0.002*[#  17]+0.001*[#  27]+0.001*[#  28]+0.001*[#   6]+0.001*[#   7]
          
    |psi|^2 = 0.996
==== e(  22) =    -3.42404 eV ==== 
     psi = 0.151*[#  24]+0.151*[#  25]+0.103*[#  31]+0.103*[#  34]+0.077*[#  23]
          +0.077*[#  26]+0.069*[#  32]+0.069*[#  33]+0.036*[#  13]+0.036*[#  18]
          +0.025*[#  15]+0.025*[#  16]+0.008*[#   3]+0.008*[#   4]+0.007*[#   9]
          +0.007*[#  12]+0.006*[#   5]+0.006*[#   8]+0.004*[#  10]+0.004*[#  11]
          +0.003*[#  29]+0.003*[#  30]+0.003*[#  21]+0.003*[#  22]+0.002*[#  14]
          +0.002*[#  17]+0.001*[#  19]+0.001*[#  20]+0.001*[#   6]+0.001*[#   7]
          
    |psi|^2 = 0.996
==== e(  23) =    -1.98851 eV ==== 
     psi = 0.069*[#  21]+0.069*[#  22]+0.058*[#  31]+0.058*[#  34]+0.055*[#  13]
          +0.055*[#  18]+0.053*[#  14]+0.053*[#  17]+0.045*[#  23]+0.045*[#  26]
          +0.039*[#  32]+0.039*[#  33]+0.029*[#   9]+0.029*[#  12]+0.028*[#   6]
          +0.028*[#   7]+0.021*[#  19]+0.021*[#  20]+0.020*[#  27]+0.020*[#  28]
          +0.019*[#  15]+0.019*[#  16]+0.016*[#   3]+0.016*[#   4]+0.016*[#  29]
          +0.016*[#  30]+0.010*[#  10]+0.010*[#  11]+0.009*[#  24]+0.009*[#  25]
          +0.004*[#   5]+0.004*[#   8]
    |psi|^2 = 0.983
==== e(  24) =    -1.98851 eV ==== 
     psi = 0.069*[#  29]+0.069*[#  30]+0.058*[#  23]+0.058*[#  26]+0.055*[#  13]
          +0.055*[#  18]+0.053*[#  14]+0.053*[#  17]+0.045*[#  31]+0.045*[#  34]
          +0.039*[#  24]+0.039*[#  25]+0.029*[#   9]+0.029*[#  12]+0.028*[#   6]
          +0.028*[#   7]+0.021*[#  27]+0.021*[#  28]+0.020*[#  19]+0.020*[#  20]
          +0.019*[#  15]+0.019*[#  16]+0.016*[#   3]+0.016*[#   4]+0.016*[#  21]
          +0.016*[#  22]+0.010*[#  10]+0.010*[#  11]+0.009*[#  32]+0.009*[#  33]
          +0.004*[#   5]+0.004*[#   8]
    |psi|^2 = 0.983
==== e(  25) =    -0.88109 eV ==== 
     psi = 0.089*[#  23]+0.089*[#  26]+0.078*[#  31]+0.078*[#  34]+0.062*[#  29]
          +0.062*[#  30]+0.055*[#  21]+0.055*[#  22]+0.043*[#  13]+0.043*[#  18]
          +0.040*[#  14]+0.040*[#  17]+0.037*[#  32]+0.037*[#  33]+0.024*[#  24]
          +0.024*[#  25]+0.022*[#   9]+0.022*[#  12]+0.018*[#  15]+0.018*[#  16]
          +0.016*[#  10]+0.016*[#  11]+0.003*[#   3]+0.003*[#   4]+0.003*[#   5]
          +0.003*[#   8]+0.002*[#   6]+0.002*[#   7]
    |psi|^2 = 0.989
==== e(  26) =    -0.88109 eV ==== 
     psi = 0.089*[#  31]+0.089*[#  34]+0.078*[#  23]+0.078*[#  26]+0.062*[#  21]
          +0.062*[#  22]+0.055*[#  29]+0.055*[#  30]+0.043*[#  13]+0.043*[#  18]
          +0.040*[#  14]+0.040*[#  17]+0.037*[#  24]+0.037*[#  25]+0.024*[#  32]
          +0.024*[#  33]+0.022*[#   9]+0.022*[#  12]+0.018*[#  15]+0.018*[#  16]
          +0.016*[#  10]+0.016*[#  11]+0.003*[#   3]+0.003*[#   4]+0.003*[#   5]
          +0.003*[#   8]+0.002*[#   6]+0.002*[#   7]
    |psi|^2 = 0.989
==== e(  27) =     2.10458 eV ==== 
     psi = 0.056*[#   5]+0.056*[#   8]+0.034*[#   3]+0.034*[#   4]+0.026*[#  27]
          +0.026*[#  28]+0.022*[#  19]+0.022*[#  20]+0.020*[#   1]+0.020*[#   2]
          +0.016*[#   6]+0.016*[#   7]+0.012*[#  32]+0.012*[#  33]+0.008*[#  21]
          +0.008*[#  22]+0.006*[#  31]+0.006*[#  34]+0.004*[#  23]+0.004*[#  26]
          +0.003*[#  24]+0.003*[#  25]
    |psi|^2 = 0.416
==== e(  28) =     2.10458 eV ==== 
     psi = 0.056*[#   5]+0.056*[#   8]+0.034*[#   3]+0.034*[#   4]+0.026*[#  19]
          +0.026*[#  20]+0.022*[#  27]+0.022*[#  28]+0.020*[#   1]+0.020*[#   2]
          +0.016*[#   6]+0.016*[#   7]+0.012*[#  24]+0.012*[#  25]+0.008*[#  29]
          +0.008*[#  30]+0.006*[#  23]+0.006*[#  26]+0.004*[#  31]+0.004*[#  34]
          +0.003*[#  32]+0.003*[#  33]
    |psi|^2 = 0.416
==== e(  29) =     2.39345 eV ==== 
     psi = 0.089*[#   6]+0.089*[#   7]+0.075*[#   1]+0.075*[#   2]+0.029*[#   3]
          +0.029*[#   4]+0.012*[#  27]+0.012*[#  28]+0.010*[#  29]+0.010*[#  30]
          +0.008*[#  19]+0.008*[#  20]+0.007*[#  24]+0.007*[#  25]+0.006*[#  21]
          +0.006*[#  22]+0.006*[#  31]+0.006*[#  34]+0.005*[#  32]+0.005*[#  33]
          +0.005*[#   5]+0.005*[#   8]+0.004*[#  23]+0.004*[#  26]
    |psi|^2 = 0.516
==== e(  30) =     2.39346 eV ==== 
     psi = 0.089*[#   6]+0.089*[#   7]+0.075*[#   1]+0.075*[#   2]+0.029*[#   3]
          +0.029*[#   4]+0.012*[#  19]+0.012*[#  20]+0.010*[#  21]+0.010*[#  22]
          +0.008*[#  27]+0.008*[#  28]+0.007*[#  32]+0.007*[#  33]+0.006*[#  29]
          +0.006*[#  30]+0.006*[#  23]+0.006*[#  26]+0.005*[#  24]+0.005*[#  25]
          +0.005*[#   5]+0.005*[#   8]+0.004*[#  31]+0.004*[#  34]
    |psi|^2 = 0.516

 k =   0.0250000000  0.2742413779 -0.0621166667
==== e(   1) =   -17.04830 eV ==== 
     psi = 0.154*[#  19]+0.154*[#  20]+0.146*[#  27]+0.146*[#  28]+0.071*[#   1]
          +0.071*[#   2]+0.058*[#   5]+0.058*[#   8]+0.034*[#   3]+0.034*[#   4]
          +0.018*[#   6]+0.018*[#   7]+0.005*[#  24]+0.005*[#  25]+0.004*[#  29]
          +0.004*[#  30]+0.002*[#  32]+0.002*[#  33]+0.002*[#  23]+0.002*[#  26]
          +0.002*[#  31]+0.002*[#  34]+0.001*[#  15]+0.001*[#  16]
    |psi|^2 = 0.999
==== e(   2) =   -17.04830 eV ==== 
     psi = 0.154*[#  27]+0.154*[#  28]+0.146*[#  19]+0.146*[#  20]+0.071*[#   1]
          +0.071*[#   2]+0.058*[#   5]+0.058*[#   8]+0.034*[#   3]+0.034*[#   4]
          +0.018*[#   6]+0.018*[#   7]+0.005*[#  32]+0.005*[#  33]+0.004*[#  21]
          +0.004*[#  22]+0.002*[#  24]+0.002*[#  25]+0.002*[#  31]+0.002*[#  34]
          +0.002*[#  23]+0.002*[#  26]+0.001*[#  15]+0.001*[#  16]
    |psi|^2 = 0.999
==== e(   3) =   -15.81204 eV ==== 
     psi = 0.200*[#  19]+0.200*[#  20]+0.189*[#  27]+0.189*[#  28]+0.050*[#   6]
          +0.050*[#   7]+0.026*[#   3]+0.026*[#   4]+0.009*[#  14]+0.009*[#  17]
          +0.008*[#   9]+0.008*[#  12]+0.007*[#  13]+0.007*[#  18]+0.006*[#  10]
          +0.006*[#  11]+0.004*[#  15]+0.004*[#  16]
    |psi|^2 = 0.999
==== e(   4) =   -15.81204 eV ==== 
     psi = 0.200*[#  27]+0.200*[#  28]+0.189*[#  19]+0.189*[#  20]+0.050*[#   6]
          +0.050*[#   7]+0.026*[#   3]+0.026*[#   4]+0.009*[#  14]+0.009*[#  17]
          +0.008*[#   9]+0.008*[#  12]+0.007*[#  13]+0.007*[#  18]+0.006*[#  10]
          +0.006*[#  11]+0.004*[#  15]+0.004*[#  16]
    |psi|^2 = 0.999
==== e(   5) =    -8.86387 eV ==== 
     psi = 0.242*[#   9]+0.242*[#  12]+0.055*[#  31]+0.055*[#  34]+0.052*[#  23]
          +0.052*[#  26]+0.026*[#  13]+0.026*[#  18]+0.025*[#  24]+0.025*[#  25]
          +0.022*[#  14]+0.022*[#  17]+0.016*[#  29]+0.016*[#  30]+0.015*[#  32]
          +0.015*[#  33]+0.011*[#  10]+0.011*[#  11]+0.011*[#   6]+0.011*[#   7]
          +0.009*[#   3]+0.009*[#   4]+0.004*[#  21]+0.004*[#  22]+0.003*[#  27]
          +0.003*[#  28]+0.003*[#   1]+0.003*[#   2]+0.002*[#  19]+0.002*[#  20]
          
    |psi|^2 = 0.994
==== e(   6) =    -8.86387 eV ==== 
     psi = 0.242*[#   9]+0.242*[#  12]+0.055*[#  23]+0.055*[#  26]+0.052*[#  31]
          +0.052*[#  34]+0.026*[#  13]+0.026*[#  18]+0.025*[#  32]+0.025*[#  33]
          +0.022*[#  14]+0.022*[#  17]+0.016*[#  21]+0.016*[#  22]+0.015*[#  24]
          +0.015*[#  25]+0.011*[#  10]+0.011*[#  11]+0.011*[#   6]+0.011*[#   7]
          +0.009*[#   3]+0.009*[#   4]+0.004*[#  29]+0.004*[#  30]+0.003*[#  19]
          +0.003*[#  20]+0.003*[#   1]+0.003*[#   2]+0.002*[#  27]+0.002*[#  28]
          
    |psi|^2 = 0.994
==== e(   7) =    -8.49935 eV ==== 
     psi = 0.181*[#  10]+0.181*[#  11]+0.098*[#  13]+0.098*[#  18]+0.065*[#  32]
          +0.065*[#  33]+0.038*[#  21]+0.038*[#  22]+0.028*[#  24]+0.028*[#  25]
          +0.023*[#  31]+0.023*[#  34]+0.020*[#  14]+0.020*[#  17]+0.015*[#   9]
          +0.015*[#  12]+0.007*[#  15]+0.007*[#  16]+0.006*[#   3]+0.006*[#   4]
          +0.005*[#  29]+0.005*[#  30]+0.005*[#  27]+0.005*[#  28]+0.004*[#   6]
          +0.004*[#   7]+0.002*[#   5]+0.002*[#   8]+0.001*[#  23]+0.001*[#  26]
          
    |psi|^2 = 0.995
==== e(   8) =    -8.49935 eV ==== 
     psi = 0.181*[#  10]+0.181*[#  11]+0.098*[#  13]+0.098*[#  18]+0.065*[#  24]
          +0.065*[#  25]+0.038*[#  29]+0.038*[#  30]+0.028*[#  32]+0.028*[#  33]
          +0.023*[#  23]+0.023*[#  26]+0.020*[#  14]+0.020*[#  17]+0.015*[#   9]
          +0.015*[#  12]+0.007*[#  15]+0.007*[#  16]+0.006*[#   3]+0.006*[#   4]
          +0.005*[#  21]+0.005*[#  22]+0.005*[#  19]+0.005*[#  20]+0.004*[#   6]
          +0.004*[#   7]+0.002*[#   5]+0.002*[#   8]+0.001*[#  31]+0.001*[#  34]
          
    |psi|^2 = 0.995
==== e(   9) =    -8.15439 eV ==== 
     psi = 0.102*[#  29]+0.102*[#  30]+0.083*[#  15]+0.083*[#  16]+0.050*[#  24]
          +0.050*[#  25]+0.044*[#  21]+0.044*[#  22]+0.042*[#  10]+0.042*[#  11]
          +0.038*[#  13]+0.038*[#  18]+0.031*[#  14]+0.031*[#  17]+0.020*[#  27]
          +0.020*[#  28]+0.019*[#   1]+0.019*[#   2]+0.019*[#  23]+0.019*[#  26]
          +0.017*[#  19]+0.017*[#  20]+0.015*[#   9]+0.015*[#  12]+0.014*[#  32]
          +0.014*[#  33]+0.003*[#  31]+0.003*[#  34]+0.001*[#   6]+0.001*[#   7]
          
    |psi|^2 = 0.995
==== e(  10) =    -8.15439 eV ==== 
     psi = 0.102*[#  21]+0.102*[#  22]+0.083*[#  15]+0.083*[#  16]+0.050*[#  32]
          +0.050*[#  33]+0.044*[#  29]+0.044*[#  30]+0.042*[#  10]+0.042*[#  11]
          +0.038*[#  13]+0.038*[#  18]+0.031*[#  14]+0.031*[#  17]+0.020*[#  19]
          +0.020*[#  20]+0.019*[#   1]+0.019*[#   2]+0.019*[#  31]+0.019*[#  34]
          +0.017*[#  27]+0.017*[#  28]+0.015*[#   9]+0.015*[#  12]+0.014*[#  24]
          +0.014*[#  25]+0.003*[#  23]+0.003*[#  26]+0.001*[#   6]+0.001*[#   7]
          
    |psi|^2 = 0.995
==== e(  11) =    -7.40698 eV ==== 
     psi = 0.085*[#  10]+0.085*[#  11]+0.074*[#  15]+0.074*[#  16]+0.073*[#  29]
          +0.073*[#  30]+0.066*[#  14]+0.066*[#  17]+0.038*[#  31]+0.038*[#  34]
          +0.026*[#  13]+0.026*[#  18]+0.024*[#   9]+0.024*[#  12]+0.023*[#   1]
          +0.023*[#   2]+0.023*[#  23]+0.023*[#  26]+0.019*[#  32]+0.019*[#  33]
          +0.019*[#  24]+0.019*[#  25]+0.015*[#  21]+0.015*[#  22]+0.009*[#  27]
          +0.009*[#  28]+0.002*[#  19]+0.002*[#  20]+0.002*[#   6]+0.002*[#   7]
          
    |psi|^2 = 0.996
==== e(  12) =    -7.40697 eV ==== 
     psi = 0.085*[#  10]+0.085*[#  11]+0.074*[#  15]+0.074*[#  16]+0.073*[#  21]
          +0.073*[#  22]+0.066*[#  14]+0.066*[#  17]+0.038*[#  23]+0.038*[#  26]
          +0.026*[#  13]+0.026*[#  18]+0.024*[#   9]+0.024*[#  12]+0.023*[#   1]
          +0.023*[#   2]+0.023*[#  31]+0.023*[#  34]+0.019*[#  24]+0.019*[#  25]
          +0.019*[#  32]+0.019*[#  33]+0.015*[#  29]+0.015*[#  30]+0.009*[#  19]
          +0.009*[#  20]+0.002*[#  27]+0.002*[#  28]+0.002*[#   6]+0.002*[#   7]
          
    |psi|^2 = 0.996
==== e(  13) =    -6.58345 eV ==== 
     psi = 0.137*[#  14]+0.137*[#  17]+0.092*[#  13]+0.092*[#  18]+0.063*[#  15]
          +0.063*[#  16]+0.053*[#   9]+0.053*[#  12]+0.039*[#  10]+0.039*[#  11]
          +0.025*[#  32]+0.025*[#  33]+0.024*[#  31]+0.024*[#  34]+0.023*[#  29]
          +0.023*[#  30]+0.014*[#  21]+0.014*[#  22]+0.010*[#  24]+0.010*[#  25]
          +0.009*[#  23]+0.009*[#  26]+0.003*[#   5]+0.003*[#   8]+0.002*[#   6]
          +0.002*[#   7]+0.001*[#   3]+0.001*[#   4]
    |psi|^2 = 0.996
==== e(  14) =    -6.58345 eV ==== 
     psi = 0.137*[#  14]+0.137*[#  17]+0.092*[#  13]+0.092*[#  18]+0.063*[#  15]
          +0.063*[#  16]+0.053*[#   9]+0.053*[#  12]+0.039*[#  10]+0.039*[#  11]
          +0.025*[#  24]+0.025*[#  25]+0.024*[#  23]+0.024*[#  26]+0.023*[#  21]
          +0.023*[#  22]+0.014*[#  29]+0.014*[#  30]+0.010*[#  32]+0.010*[#  33]
          +0.009*[#  31]+0.009*[#  34]+0.003*[#   5]+0.003*[#   8]+0.002*[#   6]
          +0.002*[#   7]+0.001*[#   3]+0.001*[#   4]
    |psi|^2 = 0.996
==== e(  15) =    -5.71606 eV ==== 
     psi = 0.085*[#  15]+0.085*[#  16]+0.081*[#  14]+0.081*[#  17]+0.053*[#   1]
          +0.053*[#   2]+0.051*[#  10]+0.051*[#  11]+0.044*[#   9]+0.044*[#  12]
          +0.036*[#  13]+0.036*[#  18]+0.028*[#  21]+0.028*[#  22]+0.027*[#  31]
          +0.027*[#  34]+0.026*[#  23]+0.026*[#  26]+0.021*[#  32]+0.021*[#  33]
          +0.015*[#  19]+0.015*[#  20]+0.012*[#  27]+0.012*[#  28]+0.010*[#  29]
          +0.010*[#  30]+0.006*[#  24]+0.006*[#  25]+0.001*[#   6]+0.001*[#   7]
          
    |psi|^2 = 0.994
==== e(  16) =    -5.71606 eV ==== 
     psi = 0.085*[#  15]+0.085*[#  16]+0.081*[#  14]+0.081*[#  17]+0.053*[#   1]
          +0.053*[#   2]+0.051*[#  10]+0.051*[#  11]+0.044*[#   9]+0.044*[#  12]
          +0.036*[#  13]+0.036*[#  18]+0.028*[#  29]+0.028*[#  30]+0.027*[#  23]
          +0.027*[#  26]+0.026*[#  31]+0.026*[#  34]+0.021*[#  24]+0.021*[#  25]
          +0.015*[#  27]+0.015*[#  28]+0.012*[#  19]+0.012*[#  20]+0.010*[#  21]
          +0.010*[#  22]+0.006*[#  32]+0.006*[#  33]+0.001*[#   6]+0.001*[#   7]
          
    |psi|^2 = 0.994
==== e(  17) =    -4.20777 eV ==== 
     psi = 0.092*[#  29]+0.092*[#  30]+0.068*[#  23]+0.068*[#  26]+0.054*[#  15]
          +0.054*[#  16]+0.049*[#  31]+0.049*[#  34]+0.042*[#  24]+0.042*[#  25]
          +0.041*[#  21]+0.041*[#  22]+0.041*[#   9]+0.041*[#  12]+0.031*[#  10]
          +0.031*[#  11]+0.029*[#  32]+0.029*[#  33]+0.025*[#   3]+0.025*[#   4]
          +0.011*[#  14]+0.011*[#  17]+0.005*[#   6]+0.005*[#   7]+0.004*[#  27]
          +0.004*[#  28]+0.002*[#  13]+0.002*[#  18]+0.002*[#   5]+0.002*[#   8]
          +0.001*[#  19]+0.001*[#  20]
    |psi|^2 = 0.995
==== e(  18) =    -4.20777 eV ==== 
     psi = 0.092*[#  21]+0.092*[#  22]+0.068*[#  31]+0.068*[#  34]+0.054*[#  15]
          +0.054*[#  16]+0.049*[#  23]+0.049*[#  26]+0.042*[#  32]+0.042*[#  33]
          +0.041*[#  29]+0.041*[#  30]+0.041*[#   9]+0.041*[#  12]+0.031*[#  10]
          +0.031*[#  11]+0.029*[#  24]+0.029*[#  25]+0.025*[#   3]+0.025*[#   4]
          +0.011*[#  14]+0.011*[#  17]+0.005*[#   6]+0.005*[#   7]+0.004*[#  19]
          +0.004*[#  20]+0.002*[#  13]+0.002*[#  18]+0.002*[#   5]+0.002*[#   8]
          +0.001*[#  27]+0.001*[#  28]
    |psi|^2 = 0.995
==== e(  19) =    -3.77927 eV ==== 
     psi = 0.109*[#  29]+0.109*[#  30]+0.064*[#  32]+0.064*[#  33]+0.058*[#  23]
          +0.058*[#  26]+0.055*[#  13]+0.055*[#  18]+0.052*[#  21]+0.052*[#  22]
          +0.052*[#  24]+0.052*[#  25]+0.043*[#  15]+0.043*[#  16]+0.028*[#  31]
          +0.028*[#  34]+0.012*[#  10]+0.012*[#  11]+0.009*[#   5]+0.009*[#   8]
          +0.007*[#  14]+0.007*[#  17]+0.002*[#   1]+0.002*[#   2]+0.002*[#  19]
          +0.002*[#  20]+0.001*[#   6]+0.001*[#   7]+0.001*[#   9]+0.001*[#  12]
          
    |psi|^2 = 0.995
==== e(  20) =    -3.77927 eV ==== 
     psi = 0.109*[#  21]+0.109*[#  22]+0.064*[#  24]+0.064*[#  25]+0.058*[#  31]
          +0.058*[#  34]+0.055*[#  13]+0.055*[#  18]+0.052*[#  29]+0.052*[#  30]
          +0.052*[#  32]+0.052*[#  33]+0.043*[#  15]+0.043*[#  16]+0.028*[#  23]
          +0.028*[#  26]+0.012*[#  10]+0.012*[#  11]+0.009*[#   5]+0.009*[#   8]
          +0.007*[#  14]+0.007*[#  17]+0.002*[#   1]+0.002*[#   2]+0.002*[#  27]
          +0.002*[#  28]+0.001*[#   6]+0.001*[#   7]+0.001*[#   9]+0.001*[#  12]
          
    |psi|^2 = 0.995
==== e(  21) =    -3.48561 eV ==== 
     psi = 0.145*[#  32]+0.145*[#  33]+0.107*[#  24]+0.107*[#  25]+0.085*[#  23]
          +0.085*[#  26]+0.054*[#  31]+0.054*[#  34]+0.032*[#  15]+0.032*[#  16]
          +0.022*[#  13]+0.022*[#  18]+0.020*[#  29]+0.020*[#  30]+0.008*[#  14]
          +0.008*[#  17]+0.007*[#  21]+0.007*[#  22]+0.005*[#   9]+0.005*[#  10]
          +0.005*[#  11]+0.005*[#  12]+0.004*[#   3]+0.004*[#   4]+0.002*[#   5]
          +0.002*[#   8]
    |psi|^2 = 0.995
==== e(  22) =    -3.48561 eV ==== 
     psi = 0.145*[#  24]+0.145*[#  25]+0.107*[#  32]+0.107*[#  33]+0.085*[#  31]
          +0.085*[#  34]+0.054*[#  23]+0.054*[#  26]+0.032*[#  15]+0.032*[#  16]
          +0.022*[#  13]+0.022*[#  18]+0.020*[#  21]+0.020*[#  22]+0.008*[#  14]
          +0.008*[#  17]+0.007*[#  29]+0.007*[#  30]+0.005*[#   9]+0.005*[#  10]
          +0.005*[#  11]+0.005*[#  12]+0.004*[#   3]+0.004*[#   4]+0.002*[#   5]
          +0.002*[#   8]
    |psi|^2 = 0.995
==== e(  23) =    -2.11244 eV ==== 
     psi = 0.071*[#  32]+0.071*[#  33]+0.069*[#  21]+0.069*[#  22]+0.054*[#  14]
          +0.054*[#  17]+0.054*[#  13]+0.054*[#  18]+0.027*[#   9]+0.027*[#  12]
          +0.027*[#  23]+0.027*[#  26]+0.027*[#  31]+0.027*[#  34]+0.025*[#   6]
          +0.025*[#   7]+0.025*[#  24]+0.025*[#  25]+0.024*[#  15]+0.024*[#  16]
          +0.021*[#  27]+0.021*[#  28]+0.021*[#  19]+0.021*[#  20]+0.018*[#  29]
          +0.018*[#  30]+0.012*[#  10]+0.012*[#  11]+0.011*[#   3]+0.011*[#   4]
          +0.004*[#   5]+0.004*[#   8]
    |psi|^2 = 0.985
==== e(  24) =    -2.11244 eV ==== 
     psi = 0.071*[#  24]+0.071*[#  25]+0.069*[#  29]+0.069*[#  30]+0.054*[#  14]
          +0.054*[#  17]+0.054*[#  13]+0.054*[#  18]+0.027*[#   9]+0.027*[#  12]
          +0.027*[#  31]+0.027*[#  34]+0.027*[#  23]+0.027*[#  26]+0.025*[#   6]
          +0.025*[#   7]+0.025*[#  32]+0.025*[#  33]+0.024*[#  15]+0.024*[#  16]
          +0.021*[#  19]+0.021*[#  20]+0.021*[#  27]+0.021*[#  28]+0.018*[#  21]
          +0.018*[#  22]+0.012*[#  10]+0.012*[#  11]+0.011*[#   3]+0.011*[#   4]
          +0.004*[#   5]+0.004*[#   8]
    |psi|^2 = 0.985
==== e(  25) =    -0.92947 eV ==== 
     psi = 0.086*[#  23]+0.086*[#  26]+0.086*[#  31]+0.086*[#  34]+0.059*[#  21]
          +0.059*[#  22]+0.057*[#  29]+0.057*[#  30]+0.045*[#  14]+0.045*[#  17]
          +0.036*[#  32]+0.036*[#  33]+0.032*[#  13]+0.032*[#  18]+0.024*[#  24]
          +0.024*[#  25]+0.022*[#  15]+0.022*[#  16]+0.019*[#  10]+0.019*[#  11]
          +0.019*[#   9]+0.019*[#  12]+0.003*[#   3]+0.003*[#   4]+0.003*[#   5]
          +0.003*[#   8]+0.002*[#   6]+0.002*[#   7]
    |psi|^2 = 0.989
==== e(  26) =    -0.92947 eV ==== 
     psi = 0.086*[#  31]+0.086*[#  34]+0.086*[#  23]+0.086*[#  26]+0.059*[#  29]
          +0.059*[#  30]+0.057*[#  21]+0.057*[#  22]+0.045*[#  14]+0.045*[#  17]
          +0.036*[#  24]+0.036*[#  25]+0.032*[#  13]+0.032*[#  18]+0.024*[#  32]
          +0.024*[#  33]+0.022*[#  15]+0.022*[#  16]+0.019*[#  10]+0.019*[#  11]
          +0.019*[#   9]+0.019*[#  12]+0.003*[#   3]+0.003*[#   4]+0.003*[#   5]
          +0.003*[#   8]+0.002*[#   6]+0.002*[#   7]
    |psi|^2 = 0.989
==== e(  27) =     2.04774 eV ==== 
     psi = 0.142*[#   1]+0.142*[#   2]+0.088*[#   6]+0.088*[#   7]+0.082*[#   3]
          +0.082*[#   4]+0.047*[#   5]+0.047*[#   8]+0.015*[#  27]+0.015*[#  28]
          +0.014*[#  19]+0.014*[#  20]+0.013*[#  29]+0.013*[#  30]+0.011*[#  31]
          +0.011*[#  34]+0.008*[#  24]+0.008*[#  25]+0.005*[#  23]+0.005*[#  26]
          +0.003*[#  21]+0.003*[#  22]+0.002*[#  32]+0.002*[#  33]+0.001*[#  15]
          +0.001*[#  16]
    |psi|^2 = 0.866
==== e(  28) =     2.04774 eV ==== 
     psi = 0.142*[#   1]+0.142*[#   2]+0.088*[#   6]+0.088*[#   7]+0.082*[#   3]
          +0.082*[#   4]+0.047*[#   5]+0.047*[#   8]+0.015*[#  19]+0.015*[#  20]
          +0.014*[#  27]+0.014*[#  28]+0.013*[#  21]+0.013*[#  22]+0.011*[#  23]
          +0.011*[#  26]+0.008*[#  32]+0.008*[#  33]+0.005*[#  31]+0.005*[#  34]
          +0.003*[#  29]+0.003*[#  30]+0.002*[#  24]+0.002*[#  25]+0.001*[#  15]
          +0.001*[#  16]
    |psi|^2 = 0.866
==== e(  29) =     2.52446 eV ==== 
     psi = 0.063*[#   1]+0.063*[#   2]+0.030*[#   5]+0.030*[#   8]+0.020*[#  32]
          +0.020*[#  33]+0.018*[#  27]+0.018*[#  28]+0.018*[#  19]+0.018*[#  20]
          +0.018*[#  21]+0.018*[#  22]+0.011*[#  31]+0.011*[#  34]+0.009*[#  23]
          +0.009*[#  26]+0.008*[#   3]+0.008*[#   4]+0.004*[#   6]+0.004*[#   7]
          
    |psi|^2 = 0.403
==== e(  30) =     2.52446 eV ==== 
     psi = 0.063*[#   1]+0.063*[#   2]+0.030*[#   5]+0.030*[#   8]+0.020*[#  24]
          +0.020*[#  25]+0.018*[#  19]+0.018*[#  20]+0.018*[#  27]+0.018*[#  28]
          +0.018*[#  29]+0.018*[#  30]+0.011*[#  23]+0.011*[#  26]+0.009*[#  31]
          +0.009*[#  34]+0.008*[#   3]+0.008*[#   4]+0.004*[#   6]+0.004*[#   7]
          
    |psi|^2 = 0.403

 k =   0.0250000000  0.3319764048 -0.0621166667
==== e(   1) =   -16.82775 eV ==== 
     psi = 0.159*[#  19]+0.159*[#  20]+0.147*[#  27]+0.147*[#  28]+0.062*[#   5]
          +0.062*[#   8]+0.054*[#   1]+0.054*[#   2]+0.038*[#   3]+0.038*[#   4]
          +0.019*[#   6]+0.019*[#   7]+0.005*[#  24]+0.005*[#  25]+0.004*[#  29]
          +0.004*[#  30]+0.002*[#  23]+0.002*[#  26]+0.002*[#  31]+0.002*[#  34]
          +0.001*[#  13]+0.001*[#  18]+0.001*[#   9]+0.001*[#  12]+0.001*[#  14]
          +0.001*[#  15]+0.001*[#  16]+0.001*[#  10]+0.001*[#  11]+0.001*[#  17]
          +0.001*[#  32]+0.001*[#  33]
    |psi|^2 = 0.999
==== e(   2) =   -16.82775 eV ==== 
     psi = 0.159*[#  27]+0.159*[#  28]+0.147*[#  19]+0.147*[#  20]+0.062*[#   5]
          +0.062*[#   8]+0.054*[#   1]+0.054*[#   2]+0.038*[#   3]+0.038*[#   4]
          +0.019*[#   6]+0.019*[#   7]+0.005*[#  32]+0.005*[#  33]+0.004*[#  21]
          +0.004*[#  22]+0.002*[#  31]+0.002*[#  34]+0.002*[#  23]+0.002*[#  26]
          +0.001*[#  13]+0.001*[#  18]+0.001*[#   9]+0.001*[#  12]+0.001*[#  14]
          +0.001*[#  15]+0.001*[#  16]+0.001*[#  10]+0.001*[#  11]+0.001*[#  17]
          +0.001*[#  24]+0.001*[#  25]
    |psi|^2 = 0.999
==== e(   3) =   -15.83560 eV ==== 
     psi = 0.204*[#  19]+0.204*[#  20]+0.191*[#  27]+0.191*[#  28]+0.038*[#   6]
          +0.038*[#   7]+0.021*[#   3]+0.021*[#   4]+0.012*[#  14]+0.012*[#  17]
          +0.010*[#   9]+0.010*[#  12]+0.009*[#  13]+0.009*[#  18]+0.008*[#  10]
          +0.008*[#  11]+0.005*[#  15]+0.005*[#  16]+0.002*[#   5]+0.002*[#   8]
          
    |psi|^2 = 0.999
==== e(   4) =   -15.83560 eV ==== 
     psi = 0.204*[#  27]+0.204*[#  28]+0.191*[#  19]+0.191*[#  20]+0.038*[#   6]
          +0.038*[#   7]+0.021*[#   3]+0.021*[#   4]+0.012*[#  14]+0.012*[#  17]
          +0.010*[#   9]+0.010*[#  12]+0.009*[#  13]+0.009*[#  18]+0.008*[#  10]
          +0.008*[#  11]+0.005*[#  15]+0.005*[#  16]+0.002*[#   5]+0.002*[#   8]
          
    |psi|^2 = 0.999
==== e(   5) =    -8.88240 eV ==== 
     psi = 0.195*[#   9]+0.195*[#  12]+0.052*[#  31]+0.052*[#  34]+0.051*[#  23]
          +0.051*[#  26]+0.032*[#  13]+0.032*[#  18]+0.029*[#  24]+0.029*[#  25]
          +0.027*[#  10]+0.027*[#  11]+0.026*[#  32]+0.026*[#  33]+0.019*[#  29]
          +0.019*[#  30]+0.014*[#   1]+0.014*[#   2]+0.011*[#  21]+0.011*[#  22]
          +0.009*[#   6]+0.009*[#   7]+0.008*[#   3]+0.008*[#   4]+0.007*[#  14]
          +0.007*[#  17]+0.007*[#  27]+0.007*[#  28]+0.005*[#  19]+0.005*[#  20]
          +0.003*[#  15]+0.003*[#  16]
    |psi|^2 = 0.994
==== e(   6) =    -8.88240 eV ==== 
     psi = 0.195*[#   9]+0.195*[#  12]+0.052*[#  23]+0.052*[#  26]+0.051*[#  31]
          +0.051*[#  34]+0.032*[#  13]+0.032*[#  18]+0.029*[#  32]+0.029*[#  33]
          +0.027*[#  10]+0.027*[#  11]+0.026*[#  24]+0.026*[#  25]+0.019*[#  21]
          +0.019*[#  22]+0.014*[#   1]+0.014*[#   2]+0.011*[#  29]+0.011*[#  30]
          +0.009*[#   6]+0.009*[#   7]+0.008*[#   3]+0.008*[#   4]+0.007*[#  14]
          +0.007*[#  17]+0.007*[#  19]+0.007*[#  20]+0.005*[#  27]+0.005*[#  28]
          +0.003*[#  15]+0.003*[#  16]
    |psi|^2 = 0.994
==== e(   7) =    -8.40879 eV ==== 
     psi = 0.155*[#  10]+0.155*[#  11]+0.089*[#  13]+0.089*[#  18]+0.055*[#  32]
          +0.055*[#  33]+0.052*[#  21]+0.052*[#  22]+0.039*[#  14]+0.039*[#  17]
          +0.031*[#  31]+0.031*[#  34]+0.015*[#  15]+0.015*[#  16]+0.014*[#  24]
          +0.014*[#  25]+0.013*[#  29]+0.013*[#  30]+0.012*[#   9]+0.012*[#  12]
          +0.007*[#   3]+0.007*[#   4]+0.005*[#   6]+0.005*[#   7]+0.003*[#  27]
          +0.003*[#  28]+0.003*[#  23]+0.003*[#  26]+0.002*[#   5]+0.002*[#   8]
          +0.001*[#   1]+0.001*[#   2]+0.001*[#  19]+0.001*[#  20]
    |psi|^2 = 0.995
==== e(   8) =    -8.40879 eV ==== 
     psi = 0.155*[#  10]+0.155*[#  11]+0.089*[#  13]+0.089*[#  18]+0.055*[#  24]
          +0.055*[#  25]+0.052*[#  29]+0.052*[#  30]+0.039*[#  14]+0.039*[#  17]
          +0.031*[#  23]+0.031*[#  26]+0.015*[#  15]+0.015*[#  16]+0.014*[#  32]
          +0.014*[#  33]+0.013*[#  21]+0.013*[#  22]+0.012*[#   9]+0.012*[#  12]
          +0.007*[#   3]+0.007*[#   4]+0.005*[#   6]+0.005*[#   7]+0.003*[#  19]
          +0.003*[#  20]+0.003*[#  31]+0.003*[#  34]+0.002*[#   5]+0.002*[#   8]
          +0.001*[#   1]+0.001*[#   2]+0.001*[#  27]+0.001*[#  28]
    |psi|^2 = 0.995
==== e(   9) =    -8.18857 eV ==== 
     psi = 0.093*[#  29]+0.093*[#  30]+0.067*[#  14]+0.067*[#  17]+0.050*[#   9]
          +0.050*[#  12]+0.048*[#  23]+0.048*[#  26]+0.046*[#  10]+0.046*[#  11]
          +0.044*[#  24]+0.044*[#  25]+0.037*[#   1]+0.037*[#   2]+0.021*[#  27]
          +0.021*[#  28]+0.019*[#  15]+0.019*[#  16]+0.018*[#  31]+0.018*[#  34]
          +0.015*[#  19]+0.015*[#  20]+0.012*[#  13]+0.012*[#  18]+0.012*[#  32]
          +0.012*[#  33]+0.008*[#  21]+0.008*[#  22]+0.004*[#   6]+0.004*[#   7]
          +0.004*[#   3]+0.004*[#   4]
    |psi|^2 = 0.995
==== e(  10) =    -8.18857 eV ==== 
     psi = 0.093*[#  21]+0.093*[#  22]+0.067*[#  14]+0.067*[#  17]+0.050*[#   9]
          +0.050*[#  12]+0.048*[#  31]+0.048*[#  34]+0.046*[#  10]+0.046*[#  11]
          +0.044*[#  32]+0.044*[#  33]+0.037*[#   1]+0.037*[#   2]+0.021*[#  19]
          +0.021*[#  20]+0.019*[#  15]+0.019*[#  16]+0.018*[#  23]+0.018*[#  26]
          +0.015*[#  27]+0.015*[#  28]+0.012*[#  13]+0.012*[#  18]+0.012*[#  24]
          +0.012*[#  25]+0.008*[#  29]+0.008*[#  30]+0.004*[#   6]+0.004*[#   7]
          +0.004*[#   3]+0.004*[#   4]
    |psi|^2 = 0.995
==== e(  11) =    -7.52658 eV ==== 
     psi = 0.129*[#  15]+0.129*[#  16]+0.107*[#  29]+0.107*[#  30]+0.085*[#  10]
          +0.085*[#  11]+0.034*[#  24]+0.034*[#  25]+0.025*[#  32]+0.025*[#  33]
          +0.022*[#  13]+0.022*[#  18]+0.020*[#  31]+0.020*[#  34]+0.016*[#  14]
          +0.016*[#  17]+0.015*[#   9]+0.015*[#  12]+0.013*[#  23]+0.013*[#  26]
          +0.010*[#   1]+0.010*[#   2]+0.009*[#  21]+0.009*[#  22]+0.008*[#  27]
          +0.008*[#  28]+0.002*[#   6]+0.002*[#   7]+0.001*[#   5]+0.001*[#   8]
          
[...]
          +0.028*[#  29]+0.028*[#  30]+0.027*[#   9]+0.027*[#  12]+0.023*[#  15]
          +0.023*[#  16]+0.021*[#  10]+0.021*[#  11]+0.018*[#  31]+0.018*[#  34]
          +0.012*[#  23]+0.012*[#  26]+0.012*[#  19]+0.012*[#  20]+0.009*[#  27]
          +0.009*[#  28]+0.003*[#   1]+0.003*[#   2]
    |psi|^2 = 0.984
==== e(  24) =    -1.08256 eV ==== 
     psi = 0.108*[#  24]+0.108*[#  25]+0.097*[#  32]+0.097*[#  33]+0.045*[#  13]
          +0.045*[#  18]+0.045*[#  14]+0.045*[#  17]+0.043*[#  29]+0.043*[#  30]
          +0.028*[#  21]+0.028*[#  22]+0.027*[#   9]+0.027*[#  12]+0.023*[#  15]
          +0.023*[#  16]+0.021*[#  10]+0.021*[#  11]+0.018*[#  23]+0.018*[#  26]
          +0.012*[#  31]+0.012*[#  34]+0.012*[#  27]+0.012*[#  28]+0.009*[#  19]
          +0.009*[#  20]+0.003*[#   1]+0.003*[#   2]
    |psi|^2 = 0.984
==== e(  25) =    -0.85727 eV ==== 
     psi = 0.083*[#  31]+0.083*[#  34]+0.082*[#  21]+0.082*[#  22]+0.081*[#  23]
          +0.081*[#  26]+0.065*[#  14]+0.065*[#  17]+0.055*[#  29]+0.055*[#  30]
          +0.036*[#  15]+0.036*[#  16]+0.026*[#  32]+0.026*[#  33]+0.025*[#  10]
          +0.025*[#  11]+0.012*[#   9]+0.012*[#  12]+0.010*[#  13]+0.010*[#  18]
          +0.008*[#  24]+0.008*[#  25]+0.003*[#  19]+0.003*[#  20]+0.002*[#   5]
          +0.002*[#   8]+0.002*[#   6]+0.002*[#   7]+0.002*[#   3]+0.002*[#   4]
          
    |psi|^2 = 0.985
==== e(  26) =    -0.85727 eV ==== 
     psi = 0.083*[#  23]+0.083*[#  26]+0.082*[#  29]+0.082*[#  30]+0.081*[#  31]
          +0.081*[#  34]+0.065*[#  14]+0.065*[#  17]+0.055*[#  21]+0.055*[#  22]
          +0.036*[#  15]+0.036*[#  16]+0.026*[#  24]+0.026*[#  25]+0.025*[#  10]
          +0.025*[#  11]+0.012*[#   9]+0.012*[#  12]+0.010*[#  13]+0.010*[#  18]
          +0.008*[#  32]+0.008*[#  33]+0.003*[#  27]+0.003*[#  28]+0.002*[#   5]
          +0.002*[#   8]+0.002*[#   6]+0.002*[#   7]+0.002*[#   3]+0.002*[#   4]
          
    |psi|^2 = 0.985
==== e(  27) =     1.21549 eV ==== 
     psi = 0.215*[#   1]+0.215*[#   2]+0.032*[#  31]+0.032*[#  34]+0.028*[#  23]
          +0.028*[#  26]+0.026*[#  21]+0.026*[#  22]+0.021*[#  32]+0.021*[#  33]
          +0.018*[#  29]+0.018*[#  30]+0.014*[#  24]+0.014*[#  25]+0.010*[#  13]
          +0.010*[#  18]+0.006*[#  27]+0.006*[#  28]+0.005*[#  19]+0.005*[#  20]
          +0.005*[#   9]+0.005*[#  12]+0.002*[#  14]+0.002*[#  17]
    |psi|^2 = 0.766
==== e(  28) =     1.21549 eV ==== 
     psi = 0.215*[#   1]+0.215*[#   2]+0.032*[#  23]+0.032*[#  26]+0.028*[#  31]
          +0.028*[#  34]+0.026*[#  29]+0.026*[#  30]+0.021*[#  24]+0.021*[#  25]
          +0.018*[#  21]+0.018*[#  22]+0.014*[#  32]+0.014*[#  33]+0.010*[#  13]
          +0.010*[#  18]+0.006*[#  19]+0.006*[#  20]+0.005*[#  27]+0.005*[#  28]
          +0.005*[#   9]+0.005*[#  12]+0.002*[#  14]+0.002*[#  17]
    |psi|^2 = 0.766
==== e(  29) =     2.74760 eV ==== 
     psi = 0.134*[#   6]+0.134*[#   7]+0.112*[#   3]+0.112*[#   4]+0.076*[#   5]
          +0.076*[#   8]+0.039*[#  27]+0.039*[#  28]+0.037*[#  19]+0.037*[#  20]
          +0.013*[#  32]+0.013*[#  33]+0.010*[#  21]+0.010*[#  22]+0.005*[#  23]
          +0.005*[#  26]+0.003*[#  24]+0.003*[#  25]
    |psi|^2 = 0.863
==== e(  30) =     2.74760 eV ==== 
     psi = 0.134*[#   6]+0.134*[#   7]+0.112*[#   3]+0.112*[#   4]+0.076*[#   5]
          +0.076*[#   8]+0.039*[#  19]+0.039*[#  20]+0.037*[#  27]+0.037*[#  28]
          +0.013*[#  24]+0.013*[#  25]+0.010*[#  29]+0.010*[#  30]+0.005*[#  31]
          +0.005*[#  34]+0.003*[#  32]+0.003*[#  33]
    |psi|^2 = 0.863

 k =   0.4750000000 -0.2742413779 -0.0621166667
==== e(   1) =   -16.15309 eV ==== 
     psi = 0.201*[#  19]+0.201*[#  20]+0.190*[#  27]+0.190*[#  28]+0.021*[#   1]
          +0.021*[#   2]+0.018*[#  14]+0.018*[#  17]+0.016*[#   9]+0.016*[#  12]
          +0.015*[#  13]+0.015*[#  18]+0.011*[#  10]+0.011*[#  11]+0.008*[#   5]
          +0.008*[#   8]+0.007*[#  15]+0.007*[#  16]+0.005*[#   3]+0.005*[#   4]
          +0.002*[#   6]+0.002*[#   7]+0.001*[#  24]+0.001*[#  25]+0.001*[#  29]
          +0.001*[#  30]
    |psi|^2 = 0.999
==== e(   2) =   -16.15309 eV ==== 
     psi = 0.201*[#  27]+0.201*[#  28]+0.190*[#  19]+0.190*[#  20]+0.021*[#   1]
          +0.021*[#   2]+0.018*[#  14]+0.018*[#  17]+0.016*[#   9]+0.016*[#  12]
          +0.015*[#  13]+0.015*[#  18]+0.011*[#  10]+0.011*[#  11]+0.008*[#   5]
          +0.008*[#   8]+0.007*[#  15]+0.007*[#  16]+0.005*[#   3]+0.005*[#   4]
          +0.002*[#   6]+0.002*[#   7]+0.001*[#  21]+0.001*[#  22]+0.001*[#  32]
          +0.001*[#  33]
    |psi|^2 = 0.999
==== e(   3) =   -15.94412 eV ==== 
     psi = 0.189*[#  19]+0.189*[#  20]+0.177*[#  27]+0.177*[#  28]+0.055*[#   5]
          +0.055*[#   8]+0.044*[#   3]+0.044*[#   4]+0.024*[#   6]+0.024*[#   7]
          +0.002*[#  14]+0.002*[#  17]+0.002*[#   9]+0.002*[#  12]+0.002*[#  13]
          +0.002*[#  18]+0.001*[#  10]+0.001*[#  11]+0.001*[#  24]+0.001*[#  25]
          
    |psi|^2 = 0.999
==== e(   4) =   -15.94412 eV ==== 
     psi = 0.189*[#  27]+0.189*[#  28]+0.177*[#  19]+0.177*[#  20]+0.055*[#   5]
          +0.055*[#   8]+0.044*[#   3]+0.044*[#   4]+0.024*[#   6]+0.024*[#   7]
          +0.002*[#  14]+0.002*[#  17]+0.002*[#   9]+0.002*[#  12]+0.002*[#  13]
          +0.002*[#  18]+0.001*[#  10]+0.001*[#  11]+0.001*[#  32]+0.001*[#  33]
          
    |psi|^2 = 0.999
==== e(   5) =    -9.69408 eV ==== 
     psi = 0.084*[#   1]+0.084*[#   2]+0.065*[#  31]+0.065*[#  34]+0.063*[#  23]
          +0.063*[#  26]+0.046*[#  29]+0.046*[#  30]+0.043*[#  21]+0.043*[#  22]
          +0.037*[#  10]+0.037*[#  11]+0.036*[#   9]+0.036*[#  12]+0.029*[#  24]
          +0.029*[#  25]+0.027*[#  14]+0.027*[#  17]+0.027*[#  32]+0.027*[#  33]
          +0.017*[#  13]+0.017*[#  18]+0.013*[#  15]+0.013*[#  16]+0.005*[#  19]
          +0.005*[#  20]+0.004*[#  27]+0.004*[#  28]
    |psi|^2 = 0.991
==== e(   6) =    -9.69408 eV ==== 
     psi = 0.084*[#   1]+0.084*[#   2]+0.065*[#  23]+0.065*[#  26]+0.063*[#  31]
          +0.063*[#  34]+0.046*[#  21]+0.046*[#  22]+0.043*[#  29]+0.043*[#  30]
          +0.037*[#  10]+0.037*[#  11]+0.036*[#   9]+0.036*[#  12]+0.029*[#  32]
          +0.029*[#  33]+0.027*[#  14]+0.027*[#  17]+0.027*[#  24]+0.027*[#  25]
          +0.017*[#  13]+0.017*[#  18]+0.013*[#  15]+0.013*[#  16]+0.005*[#  27]
          +0.005*[#  28]+0.004*[#  19]+0.004*[#  20]
    |psi|^2 = 0.991
==== e(   7) =    -8.39327 eV ==== 
     psi = 0.146*[#  10]+0.146*[#  11]+0.109*[#   9]+0.109*[#  12]+0.073*[#  14]
          +0.073*[#  17]+0.026*[#  21]+0.026*[#  22]+0.025*[#  31]+0.025*[#  34]
          +0.022*[#  29]+0.022*[#  30]+0.021*[#  24]+0.021*[#  25]+0.020*[#  32]
          +0.020*[#  33]+0.018*[#  23]+0.018*[#  26]+0.016*[#  15]+0.016*[#  16]
          +0.015*[#  13]+0.015*[#  18]+0.005*[#   1]+0.005*[#   2]
    |psi|^2 = 0.996
==== e(   8) =    -8.39327 eV ==== 
     psi = 0.146*[#  10]+0.146*[#  11]+0.109*[#   9]+0.109*[#  12]+0.073*[#  14]
          +0.073*[#  17]+0.026*[#  29]+0.026*[#  30]+0.025*[#  23]+0.025*[#  26]
          +0.022*[#  21]+0.022*[#  22]+0.021*[#  32]+0.021*[#  33]+0.020*[#  24]
          +0.020*[#  25]+0.018*[#  31]+0.018*[#  34]+0.016*[#  15]+0.016*[#  16]
          +0.015*[#  13]+0.015*[#  18]+0.005*[#   1]+0.005*[#   2]
    |psi|^2 = 0.996
==== e(   9) =    -7.59069 eV ==== 
     psi = 0.077*[#   9]+0.077*[#  12]+0.070*[#  21]+0.070*[#  22]+0.050*[#  32]
          +0.050*[#  33]+0.049*[#  15]+0.049*[#  16]+0.048*[#  13]+0.048*[#  18]
          +0.045*[#  31]+0.045*[#  34]+0.036*[#  14]+0.036*[#  17]+0.034*[#  10]
          +0.034*[#  11]+0.013*[#   1]+0.013*[#   2]+0.013*[#  29]+0.013*[#  30]
          +0.012*[#  27]+0.012*[#  28]+0.011*[#  23]+0.011*[#  26]+0.010*[#   3]
          +0.010*[#   4]+0.009*[#  24]+0.009*[#  25]+0.008*[#   6]+0.008*[#   7]
          +0.008*[#  19]+0.008*[#  20]+0.004*[#   5]+0.004*[#   8]
    |psi|^2 = 0.995
==== e(  10) =    -7.59069 eV ==== 
     psi = 0.077*[#   9]+0.077*[#  12]+0.070*[#  29]+0.070*[#  30]+0.050*[#  24]
          +0.050*[#  25]+0.049*[#  15]+0.049*[#  16]+0.048*[#  13]+0.048*[#  18]
          +0.045*[#  23]+0.045*[#  26]+0.036*[#  14]+0.036*[#  17]+0.034*[#  10]
          +0.034*[#  11]+0.013*[#   1]+0.013*[#   2]+0.013*[#  21]+0.013*[#  22]
          +0.012*[#  19]+0.012*[#  20]+0.011*[#  31]+0.011*[#  34]+0.010*[#   3]
          +0.010*[#   4]+0.009*[#  32]+0.009*[#  33]+0.008*[#   6]+0.008*[#   7]
          +0.008*[#  27]+0.008*[#  28]+0.004*[#   5]+0.004*[#   8]
    |psi|^2 = 0.995
==== e(  11) =    -7.28201 eV ==== 
     psi = 0.080*[#  21]+0.080*[#  22]+0.075*[#  31]+0.075*[#  34]+0.067*[#  32]
          +0.067*[#  33]+0.037*[#  23]+0.037*[#  26]+0.037*[#  29]+0.037*[#  30]
          +0.034*[#  15]+0.034*[#  16]+0.033*[#  24]+0.033*[#  25]+0.029*[#   3]
          +0.029*[#   4]+0.023*[#   6]+0.023*[#   7]+0.014*[#  10]+0.014*[#  11]
          +0.014*[#   9]+0.014*[#  12]+0.013*[#   5]+0.013*[#   8]+0.011*[#  27]
          +0.011*[#  28]+0.009*[#  13]+0.009*[#  18]+0.009*[#  14]+0.009*[#  17]
          +0.008*[#  19]+0.008*[#  20]+0.003*[#   1]+0.003*[#   2]
    |psi|^2 = 0.992
==== e(  12) =    -7.28201 eV ==== 
     psi = 0.080*[#  29]+0.080*[#  30]+0.075*[#  23]+0.075*[#  26]+0.067*[#  24]
          +0.067*[#  25]+0.037*[#  31]+0.037*[#  34]+0.037*[#  21]+0.037*[#  22]
          +0.034*[#  15]+0.034*[#  16]+0.033*[#  32]+0.033*[#  33]+0.029*[#   3]
          +0.029*[#   4]+0.023*[#   6]+0.023*[#   7]+0.014*[#  10]+0.014*[#  11]
          +0.014*[#   9]+0.014*[#  12]+0.013*[#   5]+0.013*[#   8]+0.011*[#  19]
          +0.011*[#  20]+0.009*[#  13]+0.009*[#  18]+0.009*[#  14]+0.009*[#  17]
          +0.008*[#  27]+0.008*[#  28]+0.003*[#   1]+0.003*[#   2]
    |psi|^2 = 0.992
==== e(  13) =    -6.31240 eV ==== 
     psi = 0.156*[#  10]+0.156*[#  11]+0.155*[#   9]+0.155*[#  12]+0.079*[#  15]
          +0.079*[#  16]+0.034*[#  13]+0.034*[#  18]+0.018*[#   1]+0.018*[#   2]
          +0.012*[#  14]+0.012*[#  17]+0.012*[#  29]+0.012*[#  30]+0.009*[#  31]
          +0.009*[#  34]+0.007*[#  23]+0.007*[#  26]+0.004*[#  27]+0.004*[#  28]
          +0.004*[#  32]+0.004*[#  33]+0.004*[#  19]+0.004*[#  20]+0.001*[#  21]
          +0.001*[#  22]+0.001*[#  24]+0.001*[#  25]
    |psi|^2 = 0.997
==== e(  14) =    -6.31240 eV ==== 
     psi = 0.156*[#  10]+0.156*[#  11]+0.155*[#   9]+0.155*[#  12]+0.079*[#  15]
          +0.079*[#  16]+0.034*[#  13]+0.034*[#  18]+0.018*[#   1]+0.018*[#   2]
          +0.012*[#  14]+0.012*[#  17]+0.012*[#  21]+0.012*[#  22]+0.009*[#  23]
          +0.009*[#  26]+0.007*[#  31]+0.007*[#  34]+0.004*[#  19]+0.004*[#  20]
          +0.004*[#  24]+0.004*[#  25]+0.004*[#  27]+0.004*[#  28]+0.001*[#  29]
          +0.001*[#  30]+0.001*[#  32]+0.001*[#  33]
    |psi|^2 = 0.997
==== e(  15) =    -5.69878 eV ==== 
     psi = 0.159*[#  13]+0.159*[#  18]+0.103*[#  14]+0.103*[#  17]+0.043*[#  10]
          +0.043*[#  11]+0.038*[#  23]+0.038*[#  26]+0.034*[#  29]+0.034*[#  30]
          +0.028*[#   9]+0.028*[#  12]+0.025*[#  24]+0.025*[#  25]+0.014*[#  15]
          +0.014*[#  16]+0.011*[#  32]+0.011*[#  33]+0.009*[#  21]+0.009*[#  22]
          +0.008*[#  31]+0.008*[#  34]+0.008*[#  27]+0.008*[#  28]+0.007*[#   3]
          +0.007*[#   4]+0.004*[#  19]+0.004*[#  20]+0.003*[#   5]+0.003*[#   8]
          +0.002*[#   1]+0.002*[#   2]+0.001*[#   6]+0.001*[#   7]
    |psi|^2 = 0.998
==== e(  16) =    -5.69878 eV ==== 
     psi = 0.159*[#  13]+0.159*[#  18]+0.103*[#  14]+0.103*[#  17]+0.043*[#  10]
          +0.043*[#  11]+0.038*[#  31]+0.038*[#  34]+0.034*[#  21]+0.034*[#  22]
          +0.028*[#   9]+0.028*[#  12]+0.025*[#  32]+0.025*[#  33]+0.014*[#  15]
          +0.014*[#  16]+0.011*[#  24]+0.011*[#  25]+0.009*[#  29]+0.009*[#  30]
          +0.008*[#  23]+0.008*[#  26]+0.008*[#  19]+0.008*[#  20]+0.007*[#   3]
          +0.007*[#   4]+0.004*[#  27]+0.004*[#  28]+0.003*[#   5]+0.003*[#   8]
          +0.002*[#   1]+0.002*[#   2]+0.001*[#   6]+0.001*[#   7]
    |psi|^2 = 0.998
==== e(  17) =    -5.40848 eV ==== 
     psi = 0.124*[#  29]+0.124*[#  30]+0.103*[#  21]+0.103*[#  22]+0.063*[#  23]
          +0.063*[#  26]+0.048*[#  13]+0.048*[#  18]+0.043*[#  31]+0.043*[#  34]
          +0.025*[#   3]+0.025*[#   4]+0.024*[#  14]+0.024*[#  17]+0.016*[#   5]
          +0.016*[#   8]+0.014*[#   9]+0.014*[#  12]+0.014*[#  32]+0.014*[#  33]
          +0.011*[#  24]+0.011*[#  25]+0.005*[#  10]+0.005*[#  11]+0.003*[#  27]
          +0.003*[#  28]+0.002*[#   6]+0.002*[#   7]+0.001*[#  15]+0.001*[#  16]
          +0.001*[#   1]+0.001*[#   2]
    |psi|^2 = 0.997
==== e(  18) =    -5.40848 eV ==== 
     psi = 0.124*[#  21]+0.124*[#  22]+0.103*[#  29]+0.103*[#  30]+0.063*[#  31]
          +0.063*[#  34]+0.048*[#  13]+0.048*[#  18]+0.043*[#  23]+0.043*[#  26]
          +0.025*[#   3]+0.025*[#   4]+0.024*[#  14]+0.024*[#  17]+0.016*[#   5]
          +0.016*[#   8]+0.014*[#   9]+0.014*[#  12]+0.014*[#  24]+0.014*[#  25]
          +0.011*[#  32]+0.011*[#  33]+0.005*[#  10]+0.005*[#  11]+0.003*[#  19]
          +0.003*[#  20]+0.002*[#   6]+0.002*[#   7]+0.001*[#  15]+0.001*[#  16]
          +0.001*[#   1]+0.001*[#   2]
    |psi|^2 = 0.997
==== e(  19) =    -5.20624 eV ==== 
     psi = 0.202*[#  15]+0.202*[#  16]+0.074*[#  13]+0.074*[#  14]+0.074*[#  17]
          +0.074*[#  18]+0.058*[#  32]+0.058*[#  33]+0.033*[#   1]+0.033*[#   2]
          +0.012*[#  23]+0.012*[#  26]+0.010*[#  27]+0.010*[#  28]+0.007*[#  29]
          +0.007*[#  30]+0.007*[#  31]+0.007*[#  34]+0.006*[#  19]+0.006*[#  20]
          +0.005*[#  24]+0.005*[#  25]+0.003*[#   9]+0.003*[#  12]+0.003*[#  21]
          +0.003*[#  22]+0.002*[#   6]+0.002*[#   7]+0.001*[#   5]+0.001*[#   8]
          +0.001*[#  10]+0.001*[#  11]
    |psi|^2 = 0.995
==== e(  20) =    -5.20623 eV ==== 
     psi = 0.202*[#  15]+0.202*[#  16]+0.074*[#  13]+0.074*[#  14]+0.074*[#  17]
          +0.074*[#  18]+0.058*[#  24]+0.058*[#  25]+0.033*[#   1]+0.033*[#   2]
          +0.012*[#  31]+0.012*[#  34]+0.010*[#  19]+0.010*[#  20]+0.007*[#  21]
          +0.007*[#  22]+0.007*[#  23]+0.007*[#  26]+0.006*[#  27]+0.006*[#  28]
          +0.005*[#  32]+0.005*[#  33]+0.003*[#   9]+0.003*[#  12]+0.003*[#  29]
          +0.003*[#  30]+0.002*[#   6]+0.002*[#   7]+0.001*[#   5]+0.001*[#   8]
          +0.001*[#  10]+0.001*[#  11]
    |psi|^2 = 0.995
==== e(  21) =    -4.73313 eV ==== 
     psi = 0.149*[#  32]+0.149*[#  33]+0.121*[#  24]+0.121*[#  25]+0.063*[#  23]
          +0.063*[#  26]+0.053*[#  31]+0.053*[#  34]+0.027*[#  29]+0.027*[#  30]
          +0.022*[#  21]+0.022*[#  22]+0.021*[#  15]+0.021*[#  16]+0.011*[#   6]
          +0.011*[#   7]+0.009*[#  13]+0.009*[#  18]+0.006*[#  14]+0.006*[#  17]
          +0.004*[#  27]+0.004*[#  28]+0.004*[#   5]+0.004*[#   8]+0.003*[#   1]
          +0.003*[#   2]+0.002*[#  10]+0.002*[#  11]+0.002*[#  19]+0.002*[#  20]
          
    |psi|^2 = 0.996
==== e(  22) =    -4.73313 eV ==== 
     psi = 0.149*[#  24]+0.149*[#  25]+0.121*[#  32]+0.121*[#  33]+0.063*[#  31]
          +0.063*[#  34]+0.053*[#  23]+0.053*[#  26]+0.027*[#  21]+0.027*[#  22]
          +0.022*[#  29]+0.022*[#  30]+0.021*[#  15]+0.021*[#  16]+0.011*[#   6]
          +0.011*[#   7]+0.009*[#  13]+0.009*[#  18]+0.006*[#  14]+0.006*[#  17]
          +0.004*[#  19]+0.004*[#  20]+0.004*[#   5]+0.004*[#   8]+0.003*[#   1]
          +0.003*[#   2]+0.002*[#  10]+0.002*[#  11]+0.002*[#  27]+0.002*[#  28]
          
    |psi|^2 = 0.996
==== e(  23) =    -1.08374 eV ==== 
     psi = 0.101*[#  32]+0.101*[#  33]+0.098*[#  24]+0.098*[#  25]+0.047*[#  13]
          +0.047*[#  18]+0.046*[#  14]+0.046*[#  17]+0.042*[#  21]+0.042*[#  22]
          +0.039*[#  29]+0.039*[#  30]+0.026*[#   9]+0.026*[#  12]+0.025*[#  15]
          +0.025*[#  16]+0.020*[#  10]+0.020*[#  11]+0.013*[#  23]+0.013*[#  26]
          +0.012*[#  31]+0.012*[#  34]+0.011*[#  27]+0.011*[#  28]+0.010*[#  19]
          +0.010*[#  20]+0.003*[#   1]+0.003*[#   2]
    |psi|^2 = 0.985
==== e(  24) =    -1.08374 eV ==== 
     psi = 0.101*[#  24]+0.101*[#  25]+0.098*[#  32]+0.098*[#  33]+0.047*[#  13]
          +0.047*[#  18]+0.046*[#  14]+0.046*[#  17]+0.042*[#  29]+0.042*[#  30]
          +0.039*[#  21]+0.039*[#  22]+0.026*[#   9]+0.026*[#  12]+0.025*[#  15]
          +0.025*[#  16]+0.020*[#  10]+0.020*[#  11]+0.013*[#  31]+0.013*[#  34]
          +0.012*[#  23]+0.012*[#  26]+0.011*[#  19]+0.011*[#  20]+0.010*[#  27]
          +0.010*[#  28]+0.003*[#   1]+0.003*[#   2]
    |psi|^2 = 0.985
==== e(  25) =    -0.74329 eV ==== 
     psi = 0.089*[#  31]+0.089*[#  34]+0.087*[#  23]+0.087*[#  26]+0.065*[#  21]
          +0.065*[#  22]+0.064*[#  29]+0.064*[#  30]+0.063*[#  14]+0.063*[#  17]
          +0.034*[#  15]+0.034*[#  16]+0.026*[#  10]+0.026*[#  11]+0.022*[#  32]
          +0.022*[#  33]+0.021*[#  24]+0.021*[#  25]+0.013*[#   9]+0.013*[#  12]
          +0.010*[#  13]+0.010*[#  18]
    |psi|^2 = 0.989
==== e(  26) =    -0.74329 eV ==== 
     psi = 0.089*[#  23]+0.089*[#  26]+0.087*[#  31]+0.087*[#  34]+0.065*[#  29]
          +0.065*[#  30]+0.064*[#  21]+0.064*[#  22]+0.063*[#  14]+0.063*[#  17]
          +0.034*[#  15]+0.034*[#  16]+0.026*[#  10]+0.026*[#  11]+0.022*[#  24]
          +0.022*[#  25]+0.021*[#  32]+0.021*[#  33]+0.013*[#   9]+0.013*[#  12]
          +0.010*[#  13]+0.010*[#  18]
    |psi|^2 = 0.989
==== e(  27) =     1.13119 eV ==== 
     psi = 0.215*[#   1]+0.215*[#   2]+0.030*[#  31]+0.030*[#  34]+0.029*[#  23]
          +0.029*[#  26]+0.022*[#  29]+0.022*[#  30]+0.021*[#  21]+0.021*[#  22]
          +0.017*[#  24]+0.017*[#  25]+0.017*[#  32]+0.017*[#  33]+0.010*[#  13]
          +0.010*[#  18]+0.006*[#  27]+0.006*[#  28]+0.006*[#  19]+0.006*[#  20]
          +0.005*[#   9]+0.005*[#  12]+0.004*[#   6]+0.004*[#   7]+0.002*[#  14]
          +0.002*[#  17]+0.002*[#   3]+0.002*[#   4]
    |psi|^2 = 0.773
==== e(  28) =     1.13119 eV ==== 
     psi = 0.215*[#   1]+0.215*[#   2]+0.030*[#  23]+0.030*[#  26]+0.029*[#  31]
          +0.029*[#  34]+0.022*[#  21]+0.022*[#  22]+0.021*[#  29]+0.021*[#  30]
          +0.017*[#  32]+0.017*[#  33]+0.017*[#  24]+0.017*[#  25]+0.010*[#  13]
          +0.010*[#  18]+0.006*[#  19]+0.006*[#  20]+0.006*[#  27]+0.006*[#  28]
          +0.005*[#   9]+0.005*[#  12]+0.004*[#   6]+0.004*[#   7]+0.002*[#  14]
          +0.002*[#  17]+0.002*[#   3]+0.002*[#   4]
    |psi|^2 = 0.773
==== e(  29) =     2.60312 eV ==== 
     psi = 0.130*[#   6]+0.130*[#   7]+0.112*[#   3]+0.112*[#   4]+0.079*[#   5]
          +0.079*[#   8]+0.040*[#  19]+0.040*[#  20]+0.040*[#  27]+0.040*[#  28]
          +0.009*[#  32]+0.009*[#  33]+0.006*[#  21]+0.006*[#  22]+0.005*[#  24]
          +0.005*[#  25]+0.002*[#  29]+0.002*[#  30]+0.002*[#  31]+0.002*[#  34]
          +0.001*[#   1]+0.001*[#   2]
    |psi|^2 = 0.855
==== e(  30) =     2.60312 eV ==== 
     psi = 0.130*[#   6]+0.130*[#   7]+0.112*[#   3]+0.112*[#   4]+0.079*[#   5]
          +0.079*[#   8]+0.040*[#  19]+0.040*[#  20]+0.040*[#  27]+0.040*[#  28]
          +0.009*[#  24]+0.009*[#  25]+0.006*[#  29]+0.006*[#  30]+0.005*[#  32]
          +0.005*[#  33]+0.002*[#  21]+0.002*[#  22]+0.002*[#  23]+0.002*[#  26]
          +0.001*[#   1]+0.001*[#   2]
    |psi|^2 = 0.855

Lowdin Charges: 

     Atom #   1: total charge =  10.5262, s =  0.7135, 
     Atom #   1: total charge =  10.5262, p =  1.1779, 
     Atom #   1: total charge =  10.5262, d =  8.6348, 
     Atom #   2: total charge =   5.6913, s =  1.6489, 
     Atom #   2: total charge =   5.6913, p =  4.0424, 
     Atom #   2: total charge =   5.6913, d =  0.0000, 
     Atom #   3: total charge =   5.6913, s =  1.6489, 
     Atom #   3: total charge =   5.6913, p =  4.0424, 
     Atom #   3: total charge =   5.6913, d =  0.0000, 
     Spilling Parameter:   0.0041

     PROJWFC      :     12.38s CPU     14.58s WALL


   This run was terminated on:  15:14: 8  19Jun2025            

=------------------------------------------------------------------------------=
   JOB DONE.
=------------------------------------------------------------------------------=
