
     Program BANDS v.7.2 starts on 19Jun2025 at 14:19:48 

     This program is part of the open-source Quantum ESPRESSO suite
     for quantum simulation of materials; please cite
         "P. Giannozzi et al., J. Phys.:Condens. Matter 21 395502 (2009);
         "P. Giannozzi et al., J. Phys.:Condens. Matter 29 465901 (2017);
         "P. Giannozzi et al., J. Chem. Phys. 152 154105 (2020);
          URL http://www.quantum-espresso.org", 
     in publications or presentations arising from this work. More details at
     http://www.quantum-espresso.org/quote

     Parallel version (MPI & OpenMP), running on      10 processor cores
     Number of MPI processes:                10
     Threads/MPI process:                     1

     MPI processes distributed on     1 nodes
     R & G space division:  proc/nbgrp/npool/nimage =      10
     68770 MiB available memory on the printing compute node when the environment starts


     Reading xml data from directory:

     ./tmp/ptse2.save/
     file Pt.rel.UPF: wavefunction(s)  5D renormalized

     IMPORTANT: XC functional enforced from input :
     Exchange-correlation= PZ
                           (   1   1   0   0   0   0   0)
     Any further DFT definition will be discarded
     Please, verify this is what you really want


     Parallelization info
     --------------------
     sticks:   dense  smooth     PW     G-vecs:    dense   smooth      PW
     Min         409     163     45               170929    43257    6321
     Max         410     164     46               170954    43296    6342
     Sum        4093    1639    451              1709389   432857   63275

     Using Slab Decomposition


     negative rho (up, down):  6.488E-06 0.000E+00
     Reading collected, re-writing distributed wavefunctions
     high-symmetry point:  0.0000 0.0000 0.0000   x coordinate   0.0000
     high-symmetry point:  0.5000 0.2887 0.0000   x coordinate   0.5774
     high-symmetry point:  0.3330 0.5768 0.0000   x coordinate   0.9104
     high-symmetry point:  0.0000 0.0000 0.0000   x coordinate   1.5764

     Plottable bands (eV) written to file ptse2.bands1.dat.gnu
     Bands written to file ptse2.bands1.dat

 **************************************************************************

                    xk=(   0.00000,   0.00000,   0.00000  )

     double point group C_3v (3m)  
     there are  6 classes and  3 irreducible representations
     the character table:

       E     -E    2C3   -2C3  3s_v  -3s_v
                                          
G_4    2.00 -2.00  1.00 -1.00  0.00  0.00
G_5    1.00 -1.00 -1.00  1.00  0.00  0.00
G_6    1.00 -1.00 -1.00  1.00  0.00  0.00

     imaginary part

       E     -E    2C3   -2C3  3s_v  -3s_v
                                          
G_4    0.00  0.00  0.00  0.00  0.00  0.00
G_5    0.00  0.00  0.00  0.00  1.00 -1.00
G_6    0.00  0.00  0.00  0.00 -1.00  1.00

     the symmetry operations in each class and the name of the first element:

     E             1
                                                                 
     -E           -1
                                                                 
     2C3           2    3
                                                                 
     -2C3         -2   -3
                                                                 
     3s_v          5    6   -4
                                                                 
     -3s_v         4   -5   -6
                                                                 

     Band symmetry, C_3v (3m)   double point group:

     e(  1 -  2) =    -17.61248  eV     2   --> G_4   L_6      
     e(  3 -  4) =    -15.75507  eV     2   --> G_4   L_6      
     e(  5 -  6) =     -8.97308  eV     2   --> G_5   L_4      
     e(  5 -  6) =     -8.97308  eV     2   --> G_6   L_5      
     e(  7 -  8) =     -8.78323  eV     2   --> G_4   L_6      
     e(  9 - 10) =     -8.53472  eV     2   --> G_4   L_6      
     e( 11 - 12) =     -6.51150  eV     2   --> G_4   L_6      
     e( 13 - 14) =     -6.29811  eV     2   --> G_5   L_4      
     e( 13 - 14) =     -6.29811  eV     2   --> G_6   L_5      
     e( 15 - 16) =     -4.62530  eV     2   --> G_4   L_6      
     e( 17 - 18) =     -4.20055  eV     2   --> G_4   L_6      
     e( 19 - 20) =     -3.63011  eV     2   --> G_4   L_6      
     e( 21 - 22) =     -3.25711  eV     2   --> G_5   L_4      
     e( 21 - 22) =     -3.25711  eV     2   --> G_6   L_5      
     e( 23 - 24) =     -0.52065  eV     2   --> G_5   L_4      
     e( 23 - 24) =     -0.52065  eV     2   --> G_6   L_5      
     e( 25 - 26) =     -0.46273  eV     2   --> G_4   L_6      
     e( 27 - 28) =      1.00630  eV     2   --> G_4   L_6      
     e( 29 - 30) =      1.74532  eV     2   --> G_4   L_6      

 **************************************************************************

 **************************************************************************

                    xk=(   0.02500,   0.01443,   0.00000  )

     double point group C_s (m)    
     there are  4 classes and  2 irreducible representations
     the character table:

       E     -E    s     -s   
                              
G_3    1.00 -1.00  0.00  0.00
G_4    1.00 -1.00  0.00  0.00

     imaginary part

       E     -E    s     -s   
                              
G_3    0.00  0.00  1.00 -1.00
G_4    0.00  0.00 -1.00  1.00

     the symmetry operations in each class and the name of the first element:

     E             1
                                                                 
     -E           -1
                                                                 
     s             2
                                                                 
     -s           -2
                                                                 

     Band symmetry, C_s (m)     double point group:

     e(  1 -  2) =    -17.60570  eV     2   --> G_3            
     e(  1 -  2) =    -17.60570  eV     2   --> G_4            
     e(  3 -  4) =    -15.75573  eV     2   --> G_3            
     e(  3 -  4) =    -15.75573  eV     2   --> G_4            
     e(  5 -  6) =     -8.97126  eV     2   --> G_3            
     e(  5 -  6) =     -8.97126  eV     2   --> G_4            
     e(  7 -  8) =     -8.77904  eV     2   --> G_3            
     e(  7 -  8) =     -8.77904  eV     2   --> G_4            
     e(  9 - 10) =     -8.53091  eV     2   --> G_3            
     e(  9 - 10) =     -8.53091  eV     2   --> G_4            
     e( 11 - 12) =     -6.51795  eV     2   --> G_3            
     e( 11 - 12) =     -6.51795  eV     2   --> G_4            
     e( 13 - 14) =     -6.30618  eV     2   --> G_3            
     e( 13 - 14) =     -6.30618  eV     2   --> G_4            
     e( 15 - 16) =     -4.65686  eV     2   --> G_3            
     e( 15 - 16) =     -4.65686  eV     2   --> G_4            
     e( 17 - 18) =     -4.18474  eV     2   --> G_3            
     e( 17 - 18) =     -4.18474  eV     2   --> G_4            
     e( 19 - 20) =     -3.62828  eV     2   --> G_3            
     e( 19 - 20) =     -3.62828  eV     2   --> G_4            
     e( 21 - 22) =     -3.26109  eV     2   --> G_3            
     e( 21 - 22) =     -3.26109  eV     2   --> G_4            
     e( 23 - 24) =     -0.56384  eV     2   --> G_3            
     e( 23 - 24) =     -0.56384  eV     2   --> G_4            
     e( 25 - 26) =     -0.48828  eV     2   --> G_3            
     e( 25 - 26) =     -0.48828  eV     2   --> G_4            
     e( 27 - 28) =      1.03553  eV     2   --> G_3            
     e( 27 - 28) =      1.03553  eV     2   --> G_4            
     e( 29 - 30) =      1.78907  eV     2   --> G_3            
     e( 29 - 30) =      1.78907  eV     2   --> G_4            

 **************************************************************************

 **************************************************************************

                    xk=(   0.05000,   0.02887,   0.00000  )

     Band symmetry, C_s (m)     double point group:

     e(  1 -  2) =    -17.58543  eV     2   --> G_3            
     e(  1 -  2) =    -17.58543  eV     2   --> G_4            
     e(  3 -  4) =    -15.75771  eV     2   --> G_3            
     e(  3 -  4) =    -15.75771  eV     2   --> G_4            
     e(  5 -  6) =     -8.96599  eV     2   --> G_3            
     e(  5 -  6) =     -8.96599  eV     2   --> G_4            
     e(  7 -  8) =     -8.76671  eV     2   --> G_3            
     e(  7 -  8) =     -8.76671  eV     2   --> G_4            
     e(  9 - 10) =     -8.51907  eV     2   --> G_3            
     e(  9 - 10) =     -8.51907  eV     2   --> G_4            
     e( 11 - 12) =     -6.53797  eV     2   --> G_3            
     e( 11 - 12) =     -6.53797  eV     2   --> G_4            
     e( 13 - 14) =     -6.32968  eV     2   --> G_3            
     e( 13 - 14) =     -6.32968  eV     2   --> G_4            
     e( 15 - 16) =     -4.74406  eV     2   --> G_3            
     e( 15 - 16) =     -4.74406  eV     2   --> G_4            
     e( 17 - 18) =     -4.14279  eV     2   --> G_3            
     e( 17 - 18) =     -4.14279  eV     2   --> G_4            
     e( 19 - 20) =     -3.62360  eV     2   --> G_3            
     e( 19 - 20) =     -3.62360  eV     2   --> G_4            
     e( 21 - 22) =     -3.27223  eV     2   --> G_3            
     e( 21 - 22) =     -3.27223  eV     2   --> G_4            
     e( 23 - 24) =     -0.71066  eV     2   --> G_3            
     e( 23 - 24) =     -0.71066  eV     2   --> G_4            
     e( 25 - 26) =     -0.53042  eV     2   --> G_3            
     e( 25 - 26) =     -0.53042  eV     2   --> G_4            
     e( 27 - 28) =      1.12039  eV     2   --> G_3            
     e( 27 - 28) =      1.12039  eV     2   --> G_4            
     e( 29 - 30) =      1.89384  eV     2   --> G_3            
     e( 29 - 30) =      1.89384  eV     2   --> G_4            

 **************************************************************************

 **************************************************************************

                    xk=(   0.07500,   0.04330,   0.00000  )

     Band symmetry, C_s (m)     double point group:

     e(  1 -  2) =    -17.55190  eV     2   --> G_3            
     e(  1 -  2) =    -17.55190  eV     2   --> G_4            
     e(  3 -  4) =    -15.76099  eV     2   --> G_3            
     e(  3 -  4) =    -15.76099  eV     2   --> G_4            
     e(  5 -  6) =     -8.95771  eV     2   --> G_3            
     e(  5 -  6) =     -8.95771  eV     2   --> G_4            
     e(  7 -  8) =     -8.74689  eV     2   --> G_3            
     e(  7 -  8) =     -8.74689  eV     2   --> G_4            
     e(  9 - 10) =     -8.49806  eV     2   --> G_3            
     e(  9 - 10) =     -8.49806  eV     2   --> G_4            
     e( 11 - 12) =     -6.57403  eV     2   --> G_3            
     e( 11 - 12) =     -6.57403  eV     2   --> G_4            
     e( 13 - 14) =     -6.36613  eV     2   --> G_3            
     e( 13 - 14) =     -6.36613  eV     2   --> G_4            
     e( 15 - 16) =     -4.87188  eV     2   --> G_3            
     e( 15 - 16) =     -4.87188  eV     2   --> G_4            
     e( 17 - 18) =     -4.08499  eV     2   --> G_3            
     e( 17 - 18) =     -4.08499  eV     2   --> G_4            
     e( 19 - 20) =     -3.61739  eV     2   --> G_3            
     e( 19 - 20) =     -3.61739  eV     2   --> G_4            
     e( 21 - 22) =     -3.28892  eV     2   --> G_3            
     e( 21 - 22) =     -3.28892  eV     2   --> G_4            
     e( 23 - 24) =     -0.92936  eV     2   --> G_3            
     e( 23 - 24) =     -0.92936  eV     2   --> G_4            
     e( 25 - 26) =     -0.58351  eV     2   --> G_3            
     e( 25 - 26) =     -0.58351  eV     2   --> G_4            
     e( 27 - 28) =      1.25227  eV     2   --> G_3            
     e( 27 - 28) =      1.25227  eV     2   --> G_4            
     e( 29 - 30) =      2.00612  eV     2   --> G_3            
     e( 29 - 30) =      2.00612  eV     2   --> G_4            

 **************************************************************************

 **************************************************************************

                    xk=(   0.10000,   0.05774,   0.00000  )

     Band symmetry, C_s (m)     double point group:

     e(  1 -  2) =    -17.50546  eV     2   --> G_3            
     e(  1 -  2) =    -17.50546  eV     2   --> G_4            
     e(  3 -  4) =    -15.76557  eV     2   --> G_3            
     e(  3 -  4) =    -15.76557  eV     2   --> G_4            
     e(  5 -  6) =     -8.94696  eV     2   --> G_3            
     e(  5 -  6) =     -8.94696  eV     2   --> G_4            
     e(  7 -  8) =     -8.72052  eV     2   --> G_3            
     e(  7 -  8) =     -8.72052  eV     2   --> G_4            
     e(  9 - 10) =     -8.46652  eV     2   --> G_3            
     e(  9 - 10) =     -8.46652  eV     2   --> G_4            
     e( 11 - 12) =     -6.63129  eV     2   --> G_3            
     e( 11 - 12) =     -6.63129  eV     2   --> G_4            
     e( 13 - 14) =     -6.41064  eV     2   --> G_3            
     e( 13 - 14) =     -6.41064  eV     2   --> G_4            
     e( 15 - 16) =     -5.02437  eV     2   --> G_3            
     e( 15 - 16) =     -5.02437  eV     2   --> G_4            
     e( 17 - 18) =     -4.02284  eV     2   --> G_3            
     e( 17 - 18) =     -4.02284  eV     2   --> G_4            
     e( 19 - 20) =     -3.60907  eV     2   --> G_3            
     e( 19 - 20) =     -3.60907  eV     2   --> G_4            
     e( 21 - 22) =     -3.31056  eV     2   --> G_3            
     e( 21 - 22) =     -3.31056  eV     2   --> G_4            
     e( 23 - 24) =     -1.18387  eV     2   --> G_3            
     e( 23 - 24) =     -1.18387  eV     2   --> G_4            
     e( 25 - 26) =     -0.64602  eV     2   --> G_3            
     e( 25 - 26) =     -0.64602  eV     2   --> G_4            
     e( 27 - 28) =      1.41848  eV     2   --> G_3            
     e( 27 - 28) =      1.41848  eV     2   --> G_4            
     e( 29 - 30) =      2.10395  eV     2   --> G_3            
     e( 29 - 30) =      2.10395  eV     2   --> G_4            

 **************************************************************************

 **************************************************************************

                    xk=(   0.12500,   0.07217,   0.00000  )

     Band symmetry, C_s (m)     double point group:

     e(  1 -  2) =    -17.44665  eV     2   --> G_3            
     e(  1 -  2) =    -17.44665  eV     2   --> G_4            
     e(  3 -  4) =    -15.77140  eV     2   --> G_3            
     e(  3 -  4) =    -15.77140  eV     2   --> G_4            
     e(  5 -  6) =     -8.93425  eV     2   --> G_3            
     e(  5 -  6) =     -8.93425  eV     2   --> G_4            
     e(  7 -  8) =     -8.68858  eV     2   --> G_3            
     e(  7 -  8) =     -8.68858  eV     2   --> G_4            
     e(  9 - 10) =     -8.42357  eV     2   --> G_3            
     e(  9 - 10) =     -8.42357  eV     2   --> G_4            
     e( 11 - 12) =     -6.71705  eV     2   --> G_3            
     e( 11 - 12) =     -6.71705  eV     2   --> G_4            
     e( 13 - 14) =     -6.45626  eV     2   --> G_3            
     e( 13 - 14) =     -6.45626  eV     2   --> G_4            
     e( 15 - 16) =     -5.18534  eV     2   --> G_3            
     e( 15 - 16) =     -5.18534  eV     2   --> G_4            
     e( 17 - 18) =     -3.97220  eV     2   --> G_3            
     e( 17 - 18) =     -3.97220  eV     2   --> G_4            
     e( 19 - 20) =     -3.59459  eV     2   --> G_3            
     e( 19 - 20) =     -3.59459  eV     2   --> G_4            
     e( 21 - 22) =     -3.33820  eV     2   --> G_3            
     e( 21 - 22) =     -3.33820  eV     2   --> G_4            
     e( 23 - 24) =     -1.44847  eV     2   --> G_3            
     e( 23 - 24) =     -1.44847  eV     2   --> G_4            
     e( 25 - 26) =     -0.71160  eV     2   --> G_3            
     e( 25 - 26) =     -0.71160  eV     2   --> G_4            
     e( 27 - 28) =      1.60556  eV     2   --> G_3            
     e( 27 - 28) =      1.60556  eV     2   --> G_4            
     e( 29 - 30) =      2.19751  eV     2   --> G_3            
     e( 29 - 30) =      2.19751  eV     2   --> G_4            

 **************************************************************************

 **************************************************************************

                    xk=(   0.15000,   0.08660,   0.00000  )

     Band symmetry, C_s (m)     double point group:

     e(  1 -  2) =    -17.37617  eV     2   --> G_3            
     e(  1 -  2) =    -17.37617  eV     2   --> G_4            
     e(  3 -  4) =    -15.77845  eV     2   --> G_3            
     e(  3 -  4) =    -15.77845  eV     2   --> G_4            
     e(  5 -  6) =     -8.91987  eV     2   --> G_3            
     e(  5 -  6) =     -8.91987  eV     2   --> G_4            
     e(  7 -  8) =     -8.65198  eV     2   --> G_3            
     e(  7 -  8) =     -8.65198  eV     2   --> G_4            
     e(  9 - 10) =     -8.36949  eV     2   --> G_3            
     e(  9 - 10) =     -8.36949  eV     2   --> G_4            
     e( 11 - 12) =     -6.83635  eV     2   --> G_3            
     e( 11 - 12) =     -6.83635  eV     2   --> G_4            
     e( 13 - 14) =     -6.49709  eV     2   --> G_3            
     e( 13 - 14) =     -6.49709  eV     2   --> G_4            
     e( 15 - 16) =     -5.33972  eV     2   --> G_3            
     e( 15 - 16) =     -5.33972  eV     2   --> G_4            
     e( 17 - 18) =     -3.95198  eV     2   --> G_3            
     e( 17 - 18) =     -3.95198  eV     2   --> G_4            
     e( 19 - 20) =     -3.57179  eV     2   --> G_3            
     e( 19 - 20) =     -3.57179  eV     2   --> G_4            
     e( 21 - 22) =     -3.37295  eV     2   --> G_3            
     e( 21 - 22) =     -3.37295  eV     2   --> G_4            
     e( 23 - 24) =     -1.70077  eV     2   --> G_3            
     e( 23 - 24) =     -1.70077  eV     2   --> G_4            
     e( 25 - 26) =     -0.77342  eV     2   --> G_3            
     e( 25 - 26) =     -0.77342  eV     2   --> G_4            
     e( 27 - 28) =      1.80176  eV     2   --> G_3            
     e( 27 - 28) =      1.80176  eV     2   --> G_4            
     e( 29 - 30) =      2.29293  eV     2   --> G_3            
     e( 29 - 30) =      2.29293  eV     2   --> G_4            

 **************************************************************************

 **************************************************************************

                    xk=(   0.17500,   0.10104,   0.00000  )

     Band symmetry, C_s (m)     double point group:

     e(  1 -  2) =    -17.29493  eV     2   --> G_3            
     e(  1 -  2) =    -17.29493  eV     2   --> G_4            
     e(  3 -  4) =    -15.78666  eV     2   --> G_3            
     e(  3 -  4) =    -15.78666  eV     2   --> G_4            
     e(  5 -  6) =     -8.90406  eV     2   --> G_3            
     e(  5 -  6) =     -8.90406  eV     2   --> G_4            
     e(  7 -  8) =     -8.61154  eV     2   --> G_3            
     e(  7 -  8) =     -8.61154  eV     2   --> G_4            
     e(  9 - 10) =     -8.30640  eV     2   --> G_3            
     e(  9 - 10) =     -8.30640  eV     2   --> G_4            
     e( 11 - 12) =     -6.98732  eV     2   --> G_3            
     e( 11 - 12) =     -6.98732  eV     2   --> G_4            
     e( 13 - 14) =     -6.53018  eV     2   --> G_3            
     e( 13 - 14) =     -6.53018  eV     2   --> G_4            
     e( 15 - 16) =     -5.47611  eV     2   --> G_3            
     e( 15 - 16) =     -5.47611  eV     2   --> G_4            
     e( 17 - 18) =     -3.97336  eV     2   --> G_3            
     e( 17 - 18) =     -3.97336  eV     2   --> G_4            
     e( 19 - 20) =     -3.55959  eV     2   --> G_3            
     e( 19 - 20) =     -3.55959  eV     2   --> G_4            
     e( 21 - 22) =     -3.40902  eV     2   --> G_3            
     e( 21 - 22) =     -3.40902  eV     2   --> G_4            
     e( 23 - 24) =     -1.91631  eV     2   --> G_3            
     e( 23 - 24) =     -1.91631  eV     2   --> G_4            
     e( 25 - 26) =     -0.82567  eV     2   --> G_3            
     e( 25 - 26) =     -0.82567  eV     2   --> G_4            
     e( 27 - 28) =      1.99705  eV     2   --> G_3            
     e( 27 - 28) =      1.99705  eV     2   --> G_4            
     e( 29 - 30) =      2.37337  eV     2   --> G_3            
     e( 29 - 30) =      2.37337  eV     2   --> G_4            

 **************************************************************************

 **************************************************************************

                    xk=(   0.20000,   0.11547,   0.00000  )

     Band symmetry, C_s (m)     double point group:

     e(  1 -  2) =    -17.20402  eV     2   --> G_3            
     e(  1 -  2) =    -17.20402  eV     2   --> G_4            
     e(  3 -  4) =    -15.79594  eV     2   --> G_3            
     e(  3 -  4) =    -15.79594  eV     2   --> G_4            
     e(  5 -  6) =     -8.88751  eV     2   --> G_3            
     e(  5 -  6) =     -8.88751  eV     2   --> G_4            
     e(  7 -  8) =     -8.56802  eV     2   --> G_3            
     e(  7 -  8) =     -8.56802  eV     2   --> G_4            
     e(  9 - 10) =     -8.23937  eV     2   --> G_3            
     e(  9 - 10) =     -8.23937  eV     2   --> G_4            
     e( 11 - 12) =     -7.15958  eV     2   --> G_3            
     e( 11 - 12) =     -7.15958  eV     2   --> G_4            
     e( 13 - 14) =     -6.55409  eV     2   --> G_3            
     e( 13 - 14) =     -6.55409  eV     2   --> G_4            
     e( 15 - 16) =     -5.58871  eV     2   --> G_3            
     e( 15 - 16) =     -5.58871  eV     2   --> G_4            
     e( 17 - 18) =     -4.03624  eV     2   --> G_3            
     e( 17 - 18) =     -4.03624  eV     2   --> G_4            
     e( 19 - 20) =     -3.60163  eV     2   --> G_3            
     e( 19 - 20) =     -3.60163  eV     2   --> G_4            
     e( 21 - 22) =     -3.43248  eV     2   --> G_3            
     e( 21 - 22) =     -3.43248  eV     2   --> G_4            
     e( 23 - 24) =     -2.06687  eV     2   --> G_3            
     e( 23 - 24) =     -2.06687  eV     2   --> G_4            
     e( 25 - 26) =     -0.86442  eV     2   --> G_3            
     e( 25 - 26) =     -0.86442  eV     2   --> G_4            
     e( 27 - 28) =      2.16493  eV     2   --> G_3            
     e( 27 - 28) =      2.16493  eV     2   --> G_4            
     e( 29 - 30) =      2.34557  eV     2   --> G_3            
     e( 29 - 30) =      2.34557  eV     2   --> G_4            

 **************************************************************************

 **************************************************************************

                    xk=(   0.22500,   0.12990,   0.00000  )

     Band symmetry, C_s (m)     double point group:

     e(  1 -  2) =    -17.10480  eV     2   --> G_3            
     e(  1 -  2) =    -17.10480  eV     2   --> G_4            
     e(  3 -  4) =    -15.80618  eV     2   --> G_3            
     e(  3 -  4) =    -15.80618  eV     2   --> G_4            
     e(  5 -  6) =     -8.87225  eV     2   --> G_3            
     e(  5 -  6) =     -8.87225  eV     2   --> G_4            
     e(  7 -  8) =     -8.52214  eV     2   --> G_3            
     e(  7 -  8) =     -8.52214  eV     2   --> G_4            
     e(  9 - 10) =     -8.17911  eV     2   --> G_3            
     e(  9 - 10) =     -8.17911  eV     2   --> G_4            
     e( 11 - 12) =     -7.33258  eV     2   --> G_3            
     e( 11 - 12) =     -7.33258  eV     2   --> G_4            
     e( 13 - 14) =     -6.56742  eV     2   --> G_3            
     e( 13 - 14) =     -6.56742  eV     2   --> G_4            
     e( 15 - 16) =     -5.67697  eV     2   --> G_3            
     e( 15 - 16) =     -5.67697  eV     2   --> G_4            
     e( 17 - 18) =     -4.13832  eV     2   --> G_3            
     e( 17 - 18) =     -4.13832  eV     2   --> G_4            
     e( 19 - 20) =     -3.70384  eV     2   --> G_3            
     e( 19 - 20) =     -3.70384  eV     2   --> G_4            
     e( 21 - 22) =     -3.46368  eV     2   --> G_3            
     e( 21 - 22) =     -3.46368  eV     2   --> G_4            
     e( 23 - 24) =     -2.12961  eV     2   --> G_3            
     e( 23 - 24) =     -2.12961  eV     2   --> G_4            
     e( 25 - 26) =     -0.88800  eV     2   --> G_3            
     e( 25 - 26) =     -0.88800  eV     2   --> G_4            
     e( 27 - 28) =      2.10110  eV     2   --> G_3            
     e( 27 - 28) =      2.10110  eV     2   --> G_4            
     e( 29 - 30) =      2.42578  eV     2   --> G_3            
     e( 29 - 30) =      2.42578  eV     2   --> G_4            

 **************************************************************************

 **************************************************************************

                    xk=(   0.25000,   0.14434,   0.00000  )

     Band symmetry, C_s (m)     double point group:

     e(  1 -  2) =    -16.99886  eV     2   --> G_3            
     e(  1 -  2) =    -16.99886  eV     2   --> G_4            
     e(  3 -  4) =    -15.81728  eV     2   --> G_3            
     e(  3 -  4) =    -15.81728  eV     2   --> G_4            
     e(  5 -  6) =     -8.86327  eV     2   --> G_3            
     e(  5 -  6) =     -8.86327  eV     2   --> G_4            
     e(  7 -  8) =     -8.47440  eV     2   --> G_3            
     e(  7 -  8) =     -8.47440  eV     2   --> G_4            
     e(  9 - 10) =     -8.14731  eV     2   --> G_3            
     e(  9 - 10) =     -8.14731  eV     2   --> G_4            
     e( 11 - 12) =     -7.47113  eV     2   --> G_3            
     e( 11 - 12) =     -7.47113  eV     2   --> G_4            
     e( 13 - 14) =     -6.56872  eV     2   --> G_3            
     e( 13 - 14) =     -6.56872  eV     2   --> G_4            
     e( 15 - 16) =     -5.74332  eV     2   --> G_3            
     e( 15 - 16) =     -5.74332  eV     2   --> G_4            
     e( 17 - 18) =     -4.27862  eV     2   --> G_3            
     e( 17 - 18) =     -4.27862  eV     2   --> G_4            
     e( 19 - 20) =     -3.84453  eV     2   --> G_3            
     e( 19 - 20) =     -3.84453  eV     2   --> G_4            
     e( 21 - 22) =     -3.52540  eV     2   --> G_3            
     e( 21 - 22) =     -3.52540  eV     2   --> G_4            
     e( 23 - 24) =     -2.10454  eV     2   --> G_3            
     e( 23 - 24) =     -2.10454  eV     2   --> G_4            
     e( 25 - 26) =     -0.89685  eV     2   --> G_3            
     e( 25 - 26) =     -0.89685  eV     2   --> G_4            
     e( 27 - 28) =      1.91631  eV     2   --> G_3            
     e( 27 - 28) =      1.91631  eV     2   --> G_4            
     e( 29 - 30) =      2.60390  eV     2   --> G_3            
     e( 29 - 30) =      2.60390  eV     2   --> G_4            

 **************************************************************************

 **************************************************************************

                    xk=(   0.27500,   0.15877,   0.00000  )

     Band symmetry, C_s (m)     double point group:

     e(  1 -  2) =    -16.88812  eV     2   --> G_3            
     e(  1 -  2) =    -16.88812  eV     2   --> G_4            
     e(  3 -  4) =    -15.82911  eV     2   --> G_3            
     e(  3 -  4) =    -15.82911  eV     2   --> G_4            
     e(  5 -  6) =     -8.87093  eV     2   --> G_3            
     e(  5 -  6) =     -8.87093  eV     2   --> G_4            
     e(  7 -  8) =     -8.42544  eV     2   --> G_3            
     e(  7 -  8) =     -8.42544  eV     2   --> G_4            
     e(  9 - 10) =     -8.16962  eV     2   --> G_3            
     e(  9 - 10) =     -8.16962  eV     2   --> G_4            
     e( 11 - 12) =     -7.53153  eV     2   --> G_3            
     e( 11 - 12) =     -7.53153  eV     2   --> G_4            
     e( 13 - 14) =     -6.55703  eV     2   --> G_3            
     e( 13 - 14) =     -6.55703  eV     2   --> G_4            
     e( 15 - 16) =     -5.79094  eV     2   --> G_3            
     e( 15 - 16) =     -5.79094  eV     2   --> G_4            
     e( 17 - 18) =     -4.45363  eV     2   --> G_3            
     e( 17 - 18) =     -4.45363  eV     2   --> G_4            
     e( 19 - 20) =     -4.00660  eV     2   --> G_3            
     e( 19 - 20) =     -4.00660  eV     2   --> G_4            
     e( 21 - 22) =     -3.61443  eV     2   --> G_3            
     e( 21 - 22) =     -3.61443  eV     2   --> G_4            
     e( 23 - 24) =     -2.01418  eV     2   --> G_3            
     e( 23 - 24) =     -2.01418  eV     2   --> G_4            
     e( 25 - 26) =     -0.89299  eV     2   --> G_3            
     e( 25 - 26) =     -0.89299  eV     2   --> G_4            
     e( 27 - 28) =      1.73268  eV     2   --> G_3            
     e( 27 - 28) =      1.73268  eV     2   --> G_4            
     e( 29 - 30) =      2.77912  eV     2   --> G_3            
     e( 29 - 30) =      2.77912  eV     2   --> G_4            

 **************************************************************************

 **************************************************************************

                    xk=(   0.30000,   0.17321,   0.00000  )

     Band symmetry, C_s (m)     double point group:

     e(  1 -  2) =    -16.77478  eV     2   --> G_3            
     e(  1 -  2) =    -16.77478  eV     2   --> G_4            
     e(  3 -  4) =    -15.84157  eV     2   --> G_3            
     e(  3 -  4) =    -15.84157  eV     2   --> G_4            
     e(  5 -  6) =     -8.91202  eV     2   --> G_3            
     e(  5 -  6) =     -8.91202  eV     2   --> G_4            
     e(  7 -  8) =     -8.38016  eV     2   --> G_3            
     e(  7 -  8) =     -8.38016  eV     2   --> G_4            
     e(  9 - 10) =     -8.22587  eV     2   --> G_3            
     e(  9 - 10) =     -8.22587  eV     2   --> G_4            
     e( 11 - 12) =     -7.50704  eV     2   --> G_3            
     e( 11 - 12) =     -7.50704  eV     2   --> G_4            
     e( 13 - 14) =     -6.53242  eV     2   --> G_3            
     e( 13 - 14) =     -6.53242  eV     2   --> G_4            
     e( 15 - 16) =     -5.82249  eV     2   --> G_3            
     e( 15 - 16) =     -5.82249  eV     2   --> G_4            
     e( 17 - 18) =     -4.65307  eV     2   --> G_3            
     e( 17 - 18) =     -4.65307  eV     2   --> G_4            
     e( 19 - 20) =     -4.17837  eV     2   --> G_3            
     e( 19 - 20) =     -4.17837  eV     2   --> G_4            
     e( 21 - 22) =     -3.72302  eV     2   --> G_3            
     e( 21 - 22) =     -3.72302  eV     2   --> G_4            
     e( 23 - 24) =     -1.88522  eV     2   --> G_3            
     e( 23 - 24) =     -1.88522  eV     2   --> G_4            
     e( 25 - 26) =     -0.87936  eV     2   --> G_3            
     e( 25 - 26) =     -0.87936  eV     2   --> G_4            
     e( 27 - 28) =      1.56745  eV     2   --> G_3            
     e( 27 - 28) =      1.56745  eV     2   --> G_4            
     e( 29 - 30) =      2.93004  eV     2   --> G_3            
     e( 29 - 30) =      2.93004  eV     2   --> G_4            

 **************************************************************************

 **************************************************************************

                    xk=(   0.32500,   0.18764,   0.00000  )

     Band symmetry, C_s (m)     double point group:

     e(  1 -  2) =    -16.66135  eV     2   --> G_3            
     e(  1 -  2) =    -16.66135  eV     2   --> G_4            
     e(  3 -  4) =    -15.85460  eV     2   --> G_3            
     e(  3 -  4) =    -15.85460  eV     2   --> G_4            
     e(  5 -  6) =     -9.00064  eV     2   --> G_3            
     e(  5 -  6) =     -9.00064  eV     2   --> G_4            
     e(  7 -  8) =     -8.36525  eV     2   --> G_3            
     e(  7 -  8) =     -8.36525  eV     2   --> G_4            
     e(  9 - 10) =     -8.23598  eV     2   --> G_3            
     e(  9 - 10) =     -8.23598  eV     2   --> G_4            
     e( 11 - 12) =     -7.43400  eV     2   --> G_3            
     e( 11 - 12) =     -7.43400  eV     2   --> G_4            
     e( 13 - 14) =     -6.49661  eV     2   --> G_3            
     e( 13 - 14) =     -6.49661  eV     2   --> G_4            
     e( 15 - 16) =     -5.83984  eV     2   --> G_3            
     e( 15 - 16) =     -5.83984  eV     2   --> G_4            
     e( 17 - 18) =     -4.86047  eV     2   --> G_3            
     e( 17 - 18) =     -4.86047  eV     2   --> G_4            
     e( 19 - 20) =     -4.35458  eV     2   --> G_3            
     e( 19 - 20) =     -4.35458  eV     2   --> G_4            
     e( 21 - 22) =     -3.84697  eV     2   --> G_3            
     e( 21 - 22) =     -3.84697  eV     2   --> G_4            
     e( 23 - 24) =     -1.73823  eV     2   --> G_3            
     e( 23 - 24) =     -1.73823  eV     2   --> G_4            
     e( 25 - 26) =     -0.85920  eV     2   --> G_3            
     e( 25 - 26) =     -0.85920  eV     2   --> G_4            
     e( 27 - 28) =      1.42769  eV     2   --> G_3            
     e( 27 - 28) =      1.42769  eV     2   --> G_4            
     e( 29 - 30) =      3.02376  eV     2   --> G_3            
     e( 29 - 30) =      3.02376  eV     2   --> G_4            

 **************************************************************************

 **************************************************************************

                    xk=(   0.35000,   0.20207,   0.00000  )

     Band symmetry, C_s (m)     double point group:

     e(  1 -  2) =    -16.55068  eV     2   --> G_3            
     e(  1 -  2) =    -16.55068  eV     2   --> G_4            
     e(  3 -  4) =    -15.86820  eV     2   --> G_3            
     e(  3 -  4) =    -15.86820  eV     2   --> G_4            
     e(  5 -  6) =     -9.13012  eV     2   --> G_3            
     e(  5 -  6) =     -9.13012  eV     2   --> G_4            
     e(  7 -  8) =     -8.37983  eV     2   --> G_3            
     e(  7 -  8) =     -8.37983  eV     2   --> G_4            
     e(  9 - 10) =     -8.17481  eV     2   --> G_3            
     e(  9 - 10) =     -8.17481  eV     2   --> G_4            
     e( 11 - 12) =     -7.34491  eV     2   --> G_3            
     e( 11 - 12) =     -7.34491  eV     2   --> G_4            
     e( 13 - 14) =     -6.45334  eV     2   --> G_3            
     e( 13 - 14) =     -6.45334  eV     2   --> G_4            
     e( 15 - 16) =     -5.84460  eV     2   --> G_3            
     e( 15 - 16) =     -5.84460  eV     2   --> G_4            
     e( 17 - 18) =     -5.05617  eV     2   --> G_3            
     e( 17 - 18) =     -5.05617  eV     2   --> G_4            
     e( 19 - 20) =     -4.53328  eV     2   --> G_3            
     e( 19 - 20) =     -4.53328  eV     2   --> G_4            
     e( 21 - 22) =     -3.98413  eV     2   --> G_3            
     e( 21 - 22) =     -3.98413  eV     2   --> G_4            
     e( 23 - 24) =     -1.58770  eV     2   --> G_3            
     e( 23 - 24) =     -1.58770  eV     2   --> G_4            
     e( 25 - 26) =     -0.83557  eV     2   --> G_3            
     e( 25 - 26) =     -0.83557  eV     2   --> G_4            
     e( 27 - 28) =      1.31678  eV     2   --> G_3            
     e( 27 - 28) =      1.31678  eV     2   --> G_4            
     e( 29 - 30) =      3.02663  eV     2   --> G_3            
     e( 29 - 30) =      3.02663  eV     2   --> G_4            

 **************************************************************************

 **************************************************************************

                    xk=(   0.37500,   0.21651,   0.00000  )

     Band symmetry, C_s (m)     double point group:

     e(  1 -  2) =    -16.44580  eV     2   --> G_3            
     e(  1 -  2) =    -16.44580  eV     2   --> G_4            
     e(  3 -  4) =    -15.88245  eV     2   --> G_3            
     e(  3 -  4) =    -15.88245  eV     2   --> G_4            
     e(  5 -  6) =     -9.27692  eV     2   --> G_3            
     e(  5 -  6) =     -9.27692  eV     2   --> G_4            
     e(  7 -  8) =     -8.38932  eV     2   --> G_3            
     e(  7 -  8) =     -8.38932  eV     2   --> G_4            
     e(  9 - 10) =     -8.08258  eV     2   --> G_3            
     e(  9 - 10) =     -8.08258  eV     2   --> G_4            
     e( 11 - 12) =     -7.26116  eV     2   --> G_3            
     e( 11 - 12) =     -7.26116  eV     2   --> G_4            
     e( 13 - 14) =     -6.40843  eV     2   --> G_3            
     e( 13 - 14) =     -6.40843  eV     2   --> G_4            
     e( 15 - 16) =     -5.83937  eV     2   --> G_3            
     e( 15 - 16) =     -5.83937  eV     2   --> G_4            
     e( 17 - 18) =     -5.21776  eV     2   --> G_3            
     e( 17 - 18) =     -5.21776  eV     2   --> G_4            
     e( 19 - 20) =     -4.71273  eV     2   --> G_3            
     e( 19 - 20) =     -4.71273  eV     2   --> G_4            
     e( 21 - 22) =     -4.13248  eV     2   --> G_3            
     e( 21 - 22) =     -4.13248  eV     2   --> G_4            
     e( 23 - 24) =     -1.44432  eV     2   --> G_3            
     e( 23 - 24) =     -1.44432  eV     2   --> G_4            
     e( 25 - 26) =     -0.81116  eV     2   --> G_3            
     e( 25 - 26) =     -0.81116  eV     2   --> G_4            
     e( 27 - 28) =      1.23531  eV     2   --> G_3            
     e( 27 - 28) =      1.23531  eV     2   --> G_4            
     e( 29 - 30) =      2.95260  eV     2   --> G_3            
     e( 29 - 30) =      2.95260  eV     2   --> G_4            

 **************************************************************************

 **************************************************************************

                    xk=(   0.40000,   0.23094,   0.00000  )

     Band symmetry, C_s (m)     double point group:

     e(  1 -  2) =    -16.34996  eV     2   --> G_3            
     e(  1 -  2) =    -16.34996  eV     2   --> G_4            
     e(  3 -  4) =    -15.89751  eV     2   --> G_3            
     e(  3 -  4) =    -15.89751  eV     2   --> G_4            
     e(  5 -  6) =     -9.41909  eV     2   --> G_3            
     e(  5 -  6) =     -9.41909  eV     2   --> G_4            
     e(  7 -  8) =     -8.39257  eV     2   --> G_3            
     e(  7 -  8) =     -8.39257  eV     2   --> G_4            
     e(  9 - 10) =     -7.97210  eV     2   --> G_3            
     e(  9 - 10) =     -7.97210  eV     2   --> G_4            
     e( 11 - 12) =     -7.20101  eV     2   --> G_3            
     e( 11 - 12) =     -7.20101  eV     2   --> G_4            
     e( 13 - 14) =     -6.36869  eV     2   --> G_3            
     e( 13 - 14) =     -6.36869  eV     2   --> G_4            
     e( 15 - 16) =     -5.82797  eV     2   --> G_3            
     e( 15 - 16) =     -5.82797  eV     2   --> G_4            
     e( 17 - 18) =     -5.32070  eV     2   --> G_3            
     e( 17 - 18) =     -5.32070  eV     2   --> G_4            
     e( 19 - 20) =     -4.89023  eV     2   --> G_3            
     e( 19 - 20) =     -4.89023  eV     2   --> G_4            
     e( 21 - 22) =     -4.28894  eV     2   --> G_3            
     e( 21 - 22) =     -4.28894  eV     2   --> G_4            
     e( 23 - 24) =     -1.31646  eV     2   --> G_3            
     e( 23 - 24) =     -1.31646  eV     2   --> G_4            
     e( 25 - 26) =     -0.78817  eV     2   --> G_3            
     e( 25 - 26) =     -0.78817  eV     2   --> G_4            
     e( 27 - 28) =      1.18130  eV     2   --> G_3            
     e( 27 - 28) =      1.18130  eV     2   --> G_4            
     e( 29 - 30) =      2.84720  eV     2   --> G_3            
     e( 29 - 30) =      2.84720  eV     2   --> G_4            

 **************************************************************************

 **************************************************************************

                    xk=(   0.42500,   0.24537,   0.00000  )

     Band symmetry, C_s (m)     double point group:

     e(  1 -  2) =    -16.26649  eV     2   --> G_3            
     e(  1 -  2) =    -16.26649  eV     2   --> G_4            
     e(  3 -  4) =    -15.91348  eV     2   --> G_3            
     e(  3 -  4) =    -15.91348  eV     2   --> G_4            
     e(  5 -  6) =     -9.54180  eV     2   --> G_3            
     e(  5 -  6) =     -9.54180  eV     2   --> G_4            
     e(  7 -  8) =     -8.39330  eV     2   --> G_3            
     e(  7 -  8) =     -8.39330  eV     2   --> G_4            
     e(  9 - 10) =     -7.84847  eV     2   --> G_3            
     e(  9 - 10) =     -7.84847  eV     2   --> G_4            
     e( 11 - 12) =     -7.18139  eV     2   --> G_3            
     e( 11 - 12) =     -7.18139  eV     2   --> G_4            
     e( 13 - 14) =     -6.33942  eV     2   --> G_3            
     e( 13 - 14) =     -6.33942  eV     2   --> G_4            
     e( 15 - 16) =     -5.80870  eV     2   --> G_3            
     e( 15 - 16) =     -5.80870  eV     2   --> G_4            
     e( 17 - 18) =     -5.35081  eV     2   --> G_3            
     e( 17 - 18) =     -5.35081  eV     2   --> G_4            
     e( 19 - 20) =     -5.06052  eV     2   --> G_3            
     e( 19 - 20) =     -5.06052  eV     2   --> G_4            
     e( 21 - 22) =     -4.44858  eV     2   --> G_3            
     e( 21 - 22) =     -4.44858  eV     2   --> G_4            
     e( 23 - 24) =     -1.21073  eV     2   --> G_3            
     e( 23 - 24) =     -1.21073  eV     2   --> G_4            
     e( 25 - 26) =     -0.76833  eV     2   --> G_3            
     e( 25 - 26) =     -0.76833  eV     2   --> G_4            
     e( 27 - 28) =      1.15031  eV     2   --> G_3            
     e( 27 - 28) =      1.15031  eV     2   --> G_4            
     e( 29 - 30) =      2.74302  eV     2   --> G_3            
     e( 29 - 30) =      2.74302  eV     2   --> G_4            

 **************************************************************************

 **************************************************************************

                    xk=(   0.45000,   0.25981,   0.00000  )

     Band symmetry, C_s (m)     double point group:

     e(  1 -  2) =    -16.19915  eV     2   --> G_3            
     e(  1 -  2) =    -16.19915  eV     2   --> G_4            
     e(  3 -  4) =    -15.92985  eV     2   --> G_3            
     e(  3 -  4) =    -15.92985  eV     2   --> G_4            
     e(  5 -  6) =     -9.63551  eV     2   --> G_3            
     e(  5 -  6) =     -9.63551  eV     2   --> G_4            
     e(  7 -  8) =     -8.39333  eV     2   --> G_3            
     e(  7 -  8) =     -8.39333  eV     2   --> G_4            
     e(  9 - 10) =     -7.71746  eV     2   --> G_3            
     e(  9 - 10) =     -7.71746  eV     2   --> G_4            
     e( 11 - 12) =     -7.21147  eV     2   --> G_3            
     e( 11 - 12) =     -7.21147  eV     2   --> G_4            
     e( 13 - 14) =     -6.32157  eV     2   --> G_3            
     e( 13 - 14) =     -6.32157  eV     2   --> G_4            
     e( 15 - 16) =     -5.76798  eV     2   --> G_3            
     e( 15 - 16) =     -5.76798  eV     2   --> G_4            
     e( 17 - 18) =     -5.33612  eV     2   --> G_3            
     e( 17 - 18) =     -5.33612  eV     2   --> G_4            
     e( 19 - 20) =     -5.20139  eV     2   --> G_3            
     e( 19 - 20) =     -5.20139  eV     2   --> G_4            
     e( 21 - 22) =     -4.60282  eV     2   --> G_3            
     e( 21 - 22) =     -4.60282  eV     2   --> G_4            
     e( 23 - 24) =     -1.13207  eV     2   --> G_3            
     e( 23 - 24) =     -1.13207  eV     2   --> G_4            
     e( 25 - 26) =     -0.75301  eV     2   --> G_3            
     e( 25 - 26) =     -0.75301  eV     2   --> G_4            
     e( 27 - 28) =      1.13596  eV     2   --> G_3            
     e( 27 - 28) =      1.13596  eV     2   --> G_4            
     e( 29 - 30) =      2.65813  eV     2   --> G_3            
     e( 29 - 30) =      2.65813  eV     2   --> G_4            

 **************************************************************************

 **************************************************************************

                    xk=(   0.47500,   0.27424,   0.00000  )

     Band symmetry, C_s (m)     double point group:

     e(  1 -  2) =    -16.15310  eV     2   --> G_3            
     e(  1 -  2) =    -16.15310  eV     2   --> G_4            
     e(  3 -  4) =    -15.94411  eV     2   --> G_3            
     e(  3 -  4) =    -15.94411  eV     2   --> G_4            
     e(  5 -  6) =     -9.69407  eV     2   --> G_3            
     e(  5 -  6) =     -9.69407  eV     2   --> G_4            
     e(  7 -  8) =     -8.39329  eV     2   --> G_3            
     e(  7 -  8) =     -8.39329  eV     2   --> G_4            
     e(  9 - 10) =     -7.59070  eV     2   --> G_3            
     e(  9 - 10) =     -7.59070  eV     2   --> G_4            
     e( 11 - 12) =     -7.28202  eV     2   --> G_3            
     e( 11 - 12) =     -7.28202  eV     2   --> G_4            
     e( 13 - 14) =     -6.31239  eV     2   --> G_3            
     e( 13 - 14) =     -6.31239  eV     2   --> G_4            
     e( 15 - 16) =     -5.69877  eV     2   --> G_3            
     e( 15 - 16) =     -5.69877  eV     2   --> G_4            
     e( 17 - 18) =     -5.40848  eV     2   --> G_3            
     e( 17 - 18) =     -5.40848  eV     2   --> G_4            
     e( 19 - 20) =     -5.20623  eV     2   --> G_3            
     e( 19 - 20) =     -5.20623  eV     2   --> G_4            
     e( 21 - 22) =     -4.73312  eV     2   --> G_3            
     e( 21 - 22) =     -4.73312  eV     2   --> G_4            
     e( 23 - 24) =     -1.08375  eV     2   --> G_3            
     e( 23 - 24) =     -1.08375  eV     2   --> G_4            
     e( 25 - 26) =     -0.74328  eV     2   --> G_3            
     e( 25 - 26) =     -0.74328  eV     2   --> G_4            
     e( 27 - 28) =      1.13119  eV     2   --> G_3            
     e( 27 - 28) =      1.13119  eV     2   --> G_4            
     e( 29 - 30) =      2.60311  eV     2   --> G_3            
     e( 29 - 30) =      2.60311  eV     2   --> G_4            

 **************************************************************************

 **************************************************************************

                    xk=(   0.50000,   0.28868,   0.00000  )

     Band symmetry, C_s (m)     double point group:

     e(  1 -  2) =    -16.13607  eV     2   --> G_3            
     e(  1 -  2) =    -16.13607  eV     2   --> G_4            
     e(  3 -  4) =    -15.95033  eV     2   --> G_3            
     e(  3 -  4) =    -15.95033  eV     2   --> G_4            
     e(  5 -  6) =     -9.71398  eV     2   --> G_3            
     e(  5 -  6) =     -9.71398  eV     2   --> G_4            
     e(  7 -  8) =     -8.39327  eV     2   --> G_3            
     e(  7 -  8) =     -8.39327  eV     2   --> G_4            
     e(  9 - 10) =     -7.51735  eV     2   --> G_3            
     e(  9 - 10) =     -7.51735  eV     2   --> G_4            
     e( 11 - 12) =     -7.33786  eV     2   --> G_3            
     e( 11 - 12) =     -7.33786  eV     2   --> G_4            
     e( 13 - 14) =     -6.30955  eV     2   --> G_3            
     e( 13 - 14) =     -6.30955  eV     2   --> G_4            
     e( 15 - 16) =     -5.64275  eV     2   --> G_3            
     e( 15 - 16) =     -5.64275  eV     2   --> G_4            
     e( 17 - 18) =     -5.48316  eV     2   --> G_3            
     e( 17 - 18) =     -5.48316  eV     2   --> G_4            
     e( 19 - 20) =     -5.17326  eV     2   --> G_3            
     e( 19 - 20) =     -5.17326  eV     2   --> G_4            
     e( 21 - 22) =     -4.79216  eV     2   --> G_3            
     e( 21 - 22) =     -4.79216  eV     2   --> G_4            
     e( 23 - 24) =     -1.06747  eV     2   --> G_3            
     e( 23 - 24) =     -1.06747  eV     2   --> G_4            
     e( 25 - 26) =     -0.73994  eV     2   --> G_3            
     e( 25 - 26) =     -0.73994  eV     2   --> G_4            
     e( 27 - 28) =      1.13033  eV     2   --> G_3            
     e( 27 - 28) =      1.13033  eV     2   --> G_4            
     e( 29 - 30) =      2.58408  eV     2   --> G_3            
     e( 29 - 30) =      2.58408  eV     2   --> G_4            

 **************************************************************************

 **************************************************************************

                    xk=(   0.49165,   0.30308,   0.00000  )

     double point group C_1 (1)    
     there are  2 classes and  1 irreducible representations
     the character table:

       E     -E   
                  
G_2    1.00 -1.00

     the symmetry operations in each class and the name of the first element:

     E             1
                                                                 
     -E           -1
                                                                 

     Band symmetry, C_1 (1)     double point group:

     e(  1 -  2) =    -16.13502  eV     2   -->   2 G_2            
     e(  3 -  4) =    -15.95030  eV     2   -->   2 G_2            
     e(  5 -  6) =     -9.71116  eV     2   -->   2 G_2            
     e(  7 -  8) =     -8.39497  eV     2   -->   2 G_2            
     e(  9 - 10) =     -7.51911  eV     2   -->   2 G_2            
     e( 11 - 12) =     -7.33335  eV     2   -->   2 G_2            
     e( 13 - 14) =     -6.31547  eV     2   -->   2 G_2            
     e( 15 - 16) =     -5.65842  eV     2   -->   2 G_2            
     e( 17 - 18) =     -5.50364  eV     2   -->   2 G_2            
     e( 19 - 20) =     -5.14200  eV     2   -->   2 G_2            
     e( 21 - 22) =     -4.78680  eV     2   -->   2 G_2            
     e( 23 - 24) =     -1.06906  eV     2   -->   2 G_2            
     e( 25 - 26) =     -0.75384  eV     2   -->   2 G_2            
     e( 27 - 28) =      1.13988  eV     2   -->   2 G_2            
     e( 29 - 30) =      2.60316  eV     2   -->   2 G_2            

 **************************************************************************

 **************************************************************************

                    xk=(   0.48330,   0.31748,   0.00000  )

     Band symmetry, C_1 (1)     double point group:

     e(  1 -  2) =    -16.13190  eV     2   -->   2 G_2            
     e(  3 -  4) =    -15.95021  eV     2   -->   2 G_2            
     e(  5 -  6) =     -9.70269  eV     2   -->   2 G_2            
     e(  7 -  8) =     -8.39997  eV     2   -->   2 G_2            
     e(  9 - 10) =     -7.52387  eV     2   -->   2 G_2            
     e( 11 - 12) =     -7.32054  eV     2   -->   2 G_2            
     e( 13 - 14) =     -6.33444  eV     2   -->   2 G_2            
     e( 15 - 16) =     -5.70735  eV     2   -->   2 G_2            
     e( 17 - 18) =     -5.53710  eV     2   -->   2 G_2            
     e( 19 - 20) =     -5.07333  eV     2   -->   2 G_2            
     e( 21 - 22) =     -4.77036  eV     2   -->   2 G_2            
     e( 23 - 24) =     -1.07394  eV     2   -->   2 G_2            
     e( 25 - 26) =     -0.79416  eV     2   -->   2 G_2            
     e( 27 - 28) =      1.16838  eV     2   -->   2 G_2            
     e( 29 - 30) =      2.65891  eV     2   -->   2 G_2            

 **************************************************************************

 **************************************************************************

                    xk=(   0.47495,   0.33189,   0.00000  )

     Band symmetry, C_1 (1)     double point group:

     e(  1 -  2) =    -16.12674  eV     2   -->   2 G_2            
     e(  3 -  4) =    -15.95004  eV     2   -->   2 G_2            
     e(  5 -  6) =     -9.68862  eV     2   -->   2 G_2            
     e(  7 -  8) =     -8.40801  eV     2   -->   2 G_2            
     e(  9 - 10) =     -7.53051  eV     2   -->   2 G_2            
     e( 11 - 12) =     -7.30109  eV     2   -->   2 G_2            
     e( 13 - 14) =     -6.36988  eV     2   -->   2 G_2            
     e( 15 - 16) =     -5.77838  eV     2   -->   2 G_2            
     e( 17 - 18) =     -5.56138  eV     2   -->   2 G_2            
     e( 19 - 20) =     -4.99776  eV     2   -->   2 G_2            
     e( 21 - 22) =     -4.74180  eV     2   -->   2 G_2            
     e( 23 - 24) =     -1.08253  eV     2   -->   2 G_2            
     e( 25 - 26) =     -0.85704  eV     2   -->   2 G_2            
     e( 27 - 28) =      1.21532  eV     2   -->   2 G_2            
     e( 29 - 30) =      2.74729  eV     2   -->   2 G_2            

 **************************************************************************

 **************************************************************************

                    xk=(   0.46660,   0.34629,   0.00000  )

     Band symmetry, C_1 (1)     double point group:

     e(  1 -  2) =    -16.11966  eV     2   -->   2 G_2            
     e(  3 -  4) =    -15.94980  eV     2   -->   2 G_2            
     e(  5 -  6) =     -9.66899  eV     2   -->   2 G_2            
     e(  7 -  8) =     -8.41866  eV     2   -->   2 G_2            
     e(  9 - 10) =     -7.53813  eV     2   -->   2 G_2            
     e( 11 - 12) =     -7.27687  eV     2   -->   2 G_2            
     e( 13 - 14) =     -6.42620  eV     2   -->   2 G_2            
     e( 15 - 16) =     -5.84954  eV     2   -->   2 G_2            
     e( 17 - 18) =     -5.57988  eV     2   -->   2 G_2            
     e( 19 - 20) =     -4.92949  eV     2   -->   2 G_2            
     e( 21 - 22) =     -4.70039  eV     2   -->   2 G_2            
     e( 23 - 24) =     -1.09592  eV     2   -->   2 G_2            
     e( 25 - 26) =     -0.93657  eV     2   -->   2 G_2            
     e( 27 - 28) =      1.27982  eV     2   -->   2 G_2            
     e( 29 - 30) =      2.86250  eV     2   -->   2 G_2            

 **************************************************************************

 **************************************************************************

                    xk=(   0.45825,   0.36070,   0.00000  )

     Band symmetry, C_1 (1)     double point group:

     e(  1 -  2) =    -16.11079  eV     2   -->   2 G_2            
     e(  3 -  4) =    -15.94946  eV     2   -->   2 G_2            
     e(  5 -  6) =     -9.64388  eV     2   -->   2 G_2            
     e(  7 -  8) =     -8.43141  eV     2   -->   2 G_2            
     e(  9 - 10) =     -7.54646  eV     2   -->   2 G_2            
     e( 11 - 12) =     -7.24959  eV     2   -->   2 G_2            
     e( 13 - 14) =     -6.50560  eV     2   -->   2 G_2            
     e( 15 - 16) =     -5.90703  eV     2   -->   2 G_2            
     e( 17 - 18) =     -5.59685  eV     2   -->   2 G_2            
     e( 19 - 20) =     -4.87305  eV     2   -->   2 G_2            
     e( 21 - 22) =     -4.64781  eV     2   -->   2 G_2            
     e( 23 - 24) =     -1.11830  eV     2   -->   2 G_2            
     e( 25 - 26) =     -1.02324  eV     2   -->   2 G_2            
     e( 27 - 28) =      1.36057  eV     2   -->   2 G_2            
     e( 29 - 30) =      2.99784  eV     2   -->   2 G_2            

 **************************************************************************

 **************************************************************************

                    xk=(   0.44990,   0.37510,   0.00000  )

     Band symmetry, C_1 (1)     double point group:

     e(  1 -  2) =    -16.10029  eV     2   -->   2 G_2            
     e(  3 -  4) =    -15.94900  eV     2   -->   2 G_2            
     e(  5 -  6) =     -9.61339  eV     2   -->   2 G_2            
     e(  7 -  8) =     -8.44569  eV     2   -->   2 G_2            
     e(  9 - 10) =     -7.55590  eV     2   -->   2 G_2            
     e( 11 - 12) =     -7.22089  eV     2   -->   2 G_2            
     e( 13 - 14) =     -6.60492  eV     2   -->   2 G_2            
     e( 15 - 16) =     -5.94719  eV     2   -->   2 G_2            
     e( 17 - 18) =     -5.61381  eV     2   -->   2 G_2            
     e( 19 - 20) =     -4.82702  eV     2   -->   2 G_2            
     e( 21 - 22) =     -4.58905  eV     2   -->   2 G_2            
     e( 23 - 24) =     -1.16934  eV     2   -->   2 G_2            
     e( 25 - 26) =     -1.09218  eV     2   -->   2 G_2            
     e( 27 - 28) =      1.45585  eV     2   -->   2 G_2            
     e( 29 - 30) =      3.14638  eV     2   -->   2 G_2            

 **************************************************************************

 **************************************************************************

                    xk=(   0.44155,   0.38951,   0.00000  )

     Band symmetry, C_1 (1)     double point group:

     e(  1 -  2) =    -16.08838  eV     2   -->   2 G_2            
     e(  3 -  4) =    -15.94840  eV     2   -->   2 G_2            
     e(  5 -  6) =     -9.57763  eV     2   -->   2 G_2            
     e(  7 -  8) =     -8.46092  eV     2   -->   2 G_2            
     e(  9 - 10) =     -7.56772  eV     2   -->   2 G_2            
     e( 11 - 12) =     -7.19279  eV     2   -->   2 G_2            
     e( 13 - 14) =     -6.71605  eV     2   -->   2 G_2            
     e( 15 - 16) =     -5.97261  eV     2   -->   2 G_2            
     e( 17 - 18) =     -5.63102  eV     2   -->   2 G_2            
     e( 19 - 20) =     -4.78809  eV     2   -->   2 G_2            
     e( 21 - 22) =     -4.52977  eV     2   -->   2 G_2            
     e( 23 - 24) =     -1.25875  eV     2   -->   2 G_2            
     e( 25 - 26) =     -1.12891  eV     2   -->   2 G_2            
     e( 27 - 28) =      1.56346  eV     2   -->   2 G_2            
     e( 29 - 30) =      3.30142  eV     2   -->   2 G_2            

 **************************************************************************

 **************************************************************************

                    xk=(   0.43320,   0.40391,   0.00000  )

     Band symmetry, C_1 (1)     double point group:

     e(  1 -  2) =    -16.07534  eV     2   -->   2 G_2            
     e(  3 -  4) =    -15.94761  eV     2   -->   2 G_2            
     e(  5 -  6) =     -9.53677  eV     2   -->   2 G_2            
     e(  7 -  8) =     -8.47654  eV     2   -->   2 G_2            
     e(  9 - 10) =     -7.58427  eV     2   -->   2 G_2            
     e( 11 - 12) =     -7.16875  eV     2   -->   2 G_2            
     e( 13 - 14) =     -6.82760  eV     2   -->   2 G_2            
     e( 15 - 16) =     -5.98761  eV     2   -->   2 G_2            
     e( 17 - 18) =     -5.64833  eV     2   -->   2 G_2            
     e( 19 - 20) =     -4.75385  eV     2   -->   2 G_2            
     e( 21 - 22) =     -4.47408  eV     2   -->   2 G_2            
     e( 23 - 24) =     -1.35708  eV     2   -->   2 G_2            
     e( 25 - 26) =     -1.15869  eV     2   -->   2 G_2            
     e( 27 - 28) =      1.68071  eV     2   -->   2 G_2            
     e( 29 - 30) =      3.45686  eV     2   -->   2 G_2            

 **************************************************************************

 **************************************************************************

                    xk=(   0.42485,   0.41832,   0.00000  )

     Band symmetry, C_1 (1)     double point group:

     e(  1 -  2) =    -16.06146  eV     2   -->   2 G_2            
     e(  3 -  4) =    -15.94657  eV     2   -->   2 G_2            
     e(  5 -  6) =     -9.49100  eV     2   -->   2 G_2            
     e(  7 -  8) =     -8.49205  eV     2   -->   2 G_2            
     e(  9 - 10) =     -7.60947  eV     2   -->   2 G_2            
     e( 11 - 12) =     -7.15716  eV     2   -->   2 G_2            
     e( 13 - 14) =     -6.92281  eV     2   -->   2 G_2            
     e( 15 - 16) =     -5.99607  eV     2   -->   2 G_2            
     e( 17 - 18) =     -5.66538  eV     2   -->   2 G_2            
     e( 19 - 20) =     -4.72313  eV     2   -->   2 G_2            
     e( 21 - 22) =     -4.42435  eV     2   -->   2 G_2            
     e( 23 - 24) =     -1.45225  eV     2   -->   2 G_2            
     e( 25 - 26) =     -1.18987  eV     2   -->   2 G_2            
     e( 27 - 28) =      1.80446  eV     2   -->   2 G_2            
     e( 29 - 30) =      3.60777  eV     2   -->   2 G_2            

 **************************************************************************

 **************************************************************************

                    xk=(   0.41650,   0.43272,   0.00000  )

     Band symmetry, C_1 (1)     double point group:

     e(  1 -  2) =    -16.04711  eV     2   -->   2 G_2            
     e(  3 -  4) =    -15.94520  eV     2   -->   2 G_2            
     e(  5 -  6) =     -9.44057  eV     2   -->   2 G_2            
     e(  7 -  8) =     -8.50701  eV     2   -->   2 G_2            
     e(  9 - 10) =     -7.64899  eV     2   -->   2 G_2            
     e( 11 - 12) =     -7.17472  eV     2   -->   2 G_2            
     e( 13 - 14) =     -6.97614  eV     2   -->   2 G_2            
     e( 15 - 16) =     -6.00091  eV     2   -->   2 G_2            
     e( 17 - 18) =     -5.68173  eV     2   -->   2 G_2            
     e( 19 - 20) =     -4.69548  eV     2   -->   2 G_2            
     e( 21 - 22) =     -4.38184  eV     2   -->   2 G_2            
     e( 23 - 24) =     -1.53953  eV     2   -->   2 G_2            
     e( 25 - 26) =     -1.22400  eV     2   -->   2 G_2            
     e( 27 - 28) =      1.93106  eV     2   -->   2 G_2            
     e( 29 - 30) =      3.75078  eV     2   -->   2 G_2            

 **************************************************************************

 **************************************************************************

                    xk=(   0.40815,   0.44713,   0.00000  )

     Band symmetry, C_1 (1)     double point group:

     e(  1 -  2) =    -16.03274  eV     2   -->   2 G_2            
     e(  3 -  4) =    -15.94341  eV     2   -->   2 G_2            
     e(  5 -  6) =     -9.38577  eV     2   -->   2 G_2            
     e(  7 -  8) =     -8.52106  eV     2   -->   2 G_2            
     e(  9 - 10) =     -7.70871  eV     2   -->   2 G_2            
     e( 11 - 12) =     -7.21925  eV     2   -->   2 G_2            
     e( 13 - 14) =     -6.98160  eV     2   -->   2 G_2            
     e( 15 - 16) =     -6.00438  eV     2   -->   2 G_2            
     e( 17 - 18) =     -5.69694  eV     2   -->   2 G_2            
     e( 19 - 20) =     -4.67068  eV     2   -->   2 G_2            
     e( 21 - 22) =     -4.34717  eV     2   -->   2 G_2            
     e( 23 - 24) =     -1.61591  eV     2   -->   2 G_2            
     e( 25 - 26) =     -1.26135  eV     2   -->   2 G_2            
     e( 27 - 28) =      2.05646  eV     2   -->   2 G_2            
     e( 29 - 30) =      3.88420  eV     2   -->   2 G_2            

 **************************************************************************

 **************************************************************************

                    xk=(   0.39980,   0.46153,   0.00000  )

     Band symmetry, C_1 (1)     double point group:

     e(  1 -  2) =    -16.01882  eV     2   -->   2 G_2            
     e(  3 -  4) =    -15.94103  eV     2   -->   2 G_2            
     e(  5 -  6) =     -9.32698  eV     2   -->   2 G_2            
     e(  7 -  8) =     -8.53396  eV     2   -->   2 G_2            
     e(  9 - 10) =     -7.79046  eV     2   -->   2 G_2            
     e( 11 - 12) =     -7.26220  eV     2   -->   2 G_2            
     e( 13 - 14) =     -6.96422  eV     2   -->   2 G_2            
     e( 15 - 16) =     -6.00816  eV     2   -->   2 G_2            
     e( 17 - 18) =     -5.71067  eV     2   -->   2 G_2            
     e( 19 - 20) =     -4.64848  eV     2   -->   2 G_2            
     e( 21 - 22) =     -4.32061  eV     2   -->   2 G_2            
     e( 23 - 24) =     -1.67928  eV     2   -->   2 G_2            
     e( 25 - 26) =     -1.30181  eV     2   -->   2 G_2            
     e( 27 - 28) =      2.17632  eV     2   -->   2 G_2            
     e( 29 - 30) =      4.00733  eV     2   -->   2 G_2            

 **************************************************************************

 **************************************************************************

                    xk=(   0.39145,   0.47594,   0.00000  )

     Band symmetry, C_1 (1)     double point group:

     e(  1 -  2) =    -16.00592  eV     2   -->   2 G_2            
     e(  3 -  4) =    -15.93792  eV     2   -->   2 G_2            
     e(  5 -  6) =     -9.26468  eV     2   -->   2 G_2            
     e(  7 -  8) =     -8.54557  eV     2   -->   2 G_2            
     e(  9 - 10) =     -7.88955  eV     2   -->   2 G_2            
     e( 11 - 12) =     -7.29136  eV     2   -->   2 G_2            
     e( 13 - 14) =     -6.93949  eV     2   -->   2 G_2            
     e( 15 - 16) =     -6.01344  eV     2   -->   2 G_2            
     e( 17 - 18) =     -5.72276  eV     2   -->   2 G_2            
     e( 19 - 20) =     -4.62837  eV     2   -->   2 G_2            
     e( 21 - 22) =     -4.30218  eV     2   -->   2 G_2            
     e( 23 - 24) =     -1.72823  eV     2   -->   2 G_2            
     e( 25 - 26) =     -1.34504  eV     2   -->   2 G_2            
     e( 27 - 28) =      2.28623  eV     2   -->   2 G_2            
     e( 29 - 30) =      4.11882  eV     2   -->   2 G_2            

 **************************************************************************

 **************************************************************************

                    xk=(   0.38310,   0.49034,   0.00000  )

     Band symmetry, C_1 (1)     double point group:

     e(  1 -  2) =    -15.99458  eV     2   -->   2 G_2            
     e(  3 -  4) =    -15.93392  eV     2   -->   2 G_2            
     e(  5 -  6) =     -9.19950  eV     2   -->   2 G_2            
     e(  7 -  8) =     -8.55592  eV     2   -->   2 G_2            
     e(  9 - 10) =     -7.99794  eV     2   -->   2 G_2            
     e( 11 - 12) =     -7.30807  eV     2   -->   2 G_2            
     e( 13 - 14) =     -6.91285  eV     2   -->   2 G_2            
     e( 15 - 16) =     -6.02083  eV     2   -->   2 G_2            
     e( 17 - 18) =     -5.73330  eV     2   -->   2 G_2            
     e( 19 - 20) =     -4.60957  eV     2   -->   2 G_2            
     e( 21 - 22) =     -4.29180  eV     2   -->   2 G_2            
     e( 23 - 24) =     -1.76204  eV     2   -->   2 G_2            
     e( 25 - 26) =     -1.39058  eV     2   -->   2 G_2            
     e( 27 - 28) =      2.38219  eV     2   -->   2 G_2            
     e( 29 - 30) =      4.21393  eV     2   -->   2 G_2            

 **************************************************************************

 **************************************************************************

                    xk=(   0.37475,   0.50475,   0.00000  )

     Band symmetry, C_1 (1)     double point group:

     e(  1 -  2) =    -15.98521  eV     2   -->   2 G_2            
     e(  3 -  4) =    -15.92907  eV     2   -->   2 G_2            
     e(  5 -  6) =     -9.13234  eV     2   -->   2 G_2            
     e(  7 -  8) =     -8.56530  eV     2   -->   2 G_2            
     e(  9 - 10) =     -8.10801  eV     2   -->   2 G_2            
     e( 11 - 12) =     -7.31633  eV     2   -->   2 G_2            
     e( 13 - 14) =     -6.88662  eV     2   -->   2 G_2            
     e( 15 - 16) =     -6.03031  eV     2   -->   2 G_2            
     e( 17 - 18) =     -5.74261  eV     2   -->   2 G_2            
     e( 19 - 20) =     -4.59113  eV     2   -->   2 G_2            
     e( 21 - 22) =     -4.28921  eV     2   -->   2 G_2            
     e( 23 - 24) =     -1.78063  eV     2   -->   2 G_2            
     e( 25 - 26) =     -1.43788  eV     2   -->   2 G_2            
     e( 27 - 28) =      2.46117  eV     2   -->   2 G_2            
     e( 29 - 30) =      4.28458  eV     2   -->   2 G_2            

 **************************************************************************

 **************************************************************************

                    xk=(   0.36640,   0.51915,   0.00000  )

     Band symmetry, C_1 (1)     double point group:

     e(  1 -  2) =    -15.97793  eV     2   -->   2 G_2            
     e(  3 -  4) =    -15.92369  eV     2   -->   2 G_2            
     e(  5 -  6) =     -9.06453  eV     2   -->   2 G_2            
     e(  7 -  8) =     -8.57447  eV     2   -->   2 G_2            
     e(  9 - 10) =     -8.21327  eV     2   -->   2 G_2            
     e( 11 - 12) =     -7.31939  eV     2   -->   2 G_2            
     e( 13 - 14) =     -6.86223  eV     2   -->   2 G_2            
     e( 15 - 16) =     -6.04126  eV     2   -->   2 G_2            
     e( 17 - 18) =     -5.75105  eV     2   -->   2 G_2            
     e( 19 - 20) =     -4.57206  eV     2   -->   2 G_2            
     e( 21 - 22) =     -4.29393  eV     2   -->   2 G_2            
     e( 23 - 24) =     -1.78450  eV     2   -->   2 G_2            
     e( 25 - 26) =     -1.48630  eV     2   -->   2 G_2            
     e( 27 - 28) =      2.52173  eV     2   -->   2 G_2            
     e( 29 - 30) =      4.33535  eV     2   -->   2 G_2            

 **************************************************************************

 **************************************************************************

                    xk=(   0.35805,   0.53356,   0.00000  )

     Band symmetry, C_1 (1)     double point group:

     e(  1 -  2) =    -15.97255  eV     2   -->   2 G_2            
     e(  3 -  4) =    -15.91843  eV     2   -->   2 G_2            
     e(  5 -  6) =     -8.99830  eV     2   -->   2 G_2            
     e(  7 -  8) =     -8.58506  eV     2   -->   2 G_2            
     e(  9 - 10) =     -8.30711  eV     2   -->   2 G_2            
     e( 11 - 12) =     -7.31952  eV     2   -->   2 G_2            
     e( 13 - 14) =     -6.84096  eV     2   -->   2 G_2            
     e( 15 - 16) =     -6.05254  eV     2   -->   2 G_2            
     e( 17 - 18) =     -5.75879  eV     2   -->   2 G_2            
     e( 19 - 20) =     -4.55176  eV     2   -->   2 G_2            
     e( 21 - 22) =     -4.30510  eV     2   -->   2 G_2            
     e( 23 - 24) =     -1.77472  eV     2   -->   2 G_2            
     e( 25 - 26) =     -1.53514  eV     2   -->   2 G_2            
     e( 27 - 28) =      2.56427  eV     2   -->   2 G_2            
     e( 29 - 30) =      4.38325  eV     2   -->   2 G_2            

 **************************************************************************

 **************************************************************************

                    xk=(   0.34970,   0.54796,   0.00000  )

     Band symmetry, C_1 (1)     double point group:

     e(  1 -  2) =    -15.96877  eV     2   -->   2 G_2            
     e(  3 -  4) =    -15.91404  eV     2   -->   2 G_2            
     e(  5 -  6) =     -8.93775  eV     2   -->   2 G_2            
     e(  7 -  8) =     -8.59963  eV     2   -->   2 G_2            
     e(  9 - 10) =     -8.38121  eV     2   -->   2 G_2            
     e( 11 - 12) =     -7.31828  eV     2   -->   2 G_2            
     e( 13 - 14) =     -6.82412  eV     2   -->   2 G_2            
     e( 15 - 16) =     -6.06268  eV     2   -->   2 G_2            
     e( 17 - 18) =     -5.76561  eV     2   -->   2 G_2            
     e( 19 - 20) =     -4.53063  eV     2   -->   2 G_2            
     e( 21 - 22) =     -4.32093  eV     2   -->   2 G_2            
     e( 23 - 24) =     -1.75270  eV     2   -->   2 G_2            
     e( 25 - 26) =     -1.58369  eV     2   -->   2 G_2            
     e( 27 - 28) =      2.59081  eV     2   -->   2 G_2            
     e( 29 - 30) =      4.43556  eV     2   -->   2 G_2            

 **************************************************************************

 **************************************************************************

                    xk=(   0.34135,   0.56237,   0.00000  )

     Band symmetry, C_1 (1)     double point group:

     e(  1 -  2) =    -15.96641  eV     2   -->   2 G_2            
     e(  3 -  4) =    -15.91117  eV     2   -->   2 G_2            
     e(  5 -  6) =     -8.89119  eV     2   -->   2 G_2            
     e(  7 -  8) =     -8.61794  eV     2   -->   2 G_2            
     e(  9 - 10) =     -8.42665  eV     2   -->   2 G_2            
     e( 11 - 12) =     -7.31686  eV     2   -->   2 G_2            
     e( 13 - 14) =     -6.81308  eV     2   -->   2 G_2            
     e( 15 - 16) =     -6.06997  eV     2   -->   2 G_2            
     e( 17 - 18) =     -5.77071  eV     2   -->   2 G_2            
     e( 19 - 20) =     -4.51153  eV     2   -->   2 G_2            
     e( 21 - 22) =     -4.33746  eV     2   -->   2 G_2            
     e( 23 - 24) =     -1.72021  eV     2   -->   2 G_2            
     e( 25 - 26) =     -1.63123  eV     2   -->   2 G_2            
     e( 27 - 28) =      2.60437  eV     2   -->   2 G_2            
     e( 29 - 30) =      4.48750  eV     2   -->   2 G_2            

 **************************************************************************

 **************************************************************************

                    xk=(   0.33300,   0.57677,   0.00000  )

     Band symmetry, C_1 (1)     double point group:

     e(  1 -  2) =    -15.96551  eV     2   -->   2 G_2            
     e(  3 -  4) =    -15.91017  eV     2   -->   2 G_2            
     e(  5 -  6) =     -8.87247  eV     2   -->   2 G_2            
     e(  7 -  8) =     -8.62806  eV     2   -->   2 G_2            
     e(  9 - 10) =     -8.44112  eV     2   -->   2 G_2            
     e( 11 - 12) =     -7.31619  eV     2   -->   2 G_2            
     e( 13 - 14) =     -6.80908  eV     2   -->   2 G_2            
     e( 15 - 16) =     -6.07280  eV     2   -->   2 G_2            
     e( 17 - 18) =     -5.77282  eV     2   -->   2 G_2            
     e( 19 - 20) =     -4.50227  eV     2   -->   2 G_2            
     e( 21 - 22) =     -4.34600  eV     2   -->   2 G_2            
     e( 23 - 24) =     -1.68094  eV     2   -->   2 G_2            
     e( 25 - 26) =     -1.67532  eV     2   -->   2 G_2            
     e( 27 - 28) =      2.60827  eV     2   -->   2 G_2            
     e( 29 - 30) =      4.51653  eV     2   -->   2 G_2            

 **************************************************************************

 **************************************************************************

                    xk=(   0.31635,   0.54793,   0.00000  )

     Band symmetry, C_1 (1)     double point group:

     e(  1 -  2) =    -15.97094  eV     2   -->   2 G_2            
     e(  3 -  4) =    -15.91305  eV     2   -->   2 G_2            
     e(  5 -  6) =     -8.92610  eV     2   -->   2 G_2            
     e(  7 -  8) =     -8.59819  eV     2   -->   2 G_2            
     e(  9 - 10) =     -8.39464  eV     2   -->   2 G_2            
     e( 11 - 12) =     -7.32037  eV     2   -->   2 G_2            
     e( 13 - 14) =     -6.82565  eV     2   -->   2 G_2            
     e( 15 - 16) =     -6.05983  eV     2   -->   2 G_2            
     e( 17 - 18) =     -5.76054  eV     2   -->   2 G_2            
     e( 19 - 20) =     -4.54689  eV     2   -->   2 G_2            
     e( 21 - 22) =     -4.30311  eV     2   -->   2 G_2            
     e( 23 - 24) =     -1.76418  eV     2   -->   2 G_2            
     e( 25 - 26) =     -1.57604  eV     2   -->   2 G_2            
     e( 27 - 28) =      2.59837  eV     2   -->   2 G_2            
     e( 29 - 30) =      4.35545  eV     2   -->   2 G_2            

 **************************************************************************

 **************************************************************************

                    xk=(   0.29970,   0.51910,   0.00000  )

     Band symmetry, C_1 (1)     double point group:

     e(  1 -  2) =    -15.99403  eV     2   -->   2 G_2            
     e(  3 -  4) =    -15.91576  eV     2   -->   2 G_2            
     e(  5 -  6) =     -9.00136  eV     2   -->   2 G_2            
     e(  7 -  8) =     -8.56573  eV     2   -->   2 G_2            
     e(  9 - 10) =     -8.28981  eV     2   -->   2 G_2            
     e( 11 - 12) =     -7.33554  eV     2   -->   2 G_2            
     e( 13 - 14) =     -6.86958  eV     2   -->   2 G_2            
     e( 15 - 16) =     -6.02276  eV     2   -->   2 G_2            
     e( 17 - 18) =     -5.71536  eV     2   -->   2 G_2            
     e( 19 - 20) =     -4.64254  eV     2   -->   2 G_2            
     e( 21 - 22) =     -4.20957  eV     2   -->   2 G_2            
     e( 23 - 24) =     -1.83549  eV     2   -->   2 G_2            
     e( 25 - 26) =     -1.46691  eV     2   -->   2 G_2            
     e( 27 - 28) =      2.58028  eV     2   -->   2 G_2            
     e( 29 - 30) =      4.07145  eV     2   -->   2 G_2            

 **************************************************************************

 **************************************************************************

                    xk=(   0.28305,   0.49026,   0.00000  )

     Band symmetry, C_1 (1)     double point group:

     e(  1 -  2) =    -16.04125  eV     2   -->   2 G_2            
     e(  3 -  4) =    -15.91316  eV     2   -->   2 G_2            
     e(  5 -  6) =     -9.04688  eV     2   -->   2 G_2            
     e(  7 -  8) =     -8.54492  eV     2   -->   2 G_2            
     e(  9 - 10) =     -8.17411  eV     2   -->   2 G_2            
     e( 11 - 12) =     -7.36377  eV     2   -->   2 G_2            
     e( 13 - 14) =     -6.92655  eV     2   -->   2 G_2            
     e( 15 - 16) =     -5.96841  eV     2   -->   2 G_2            
     e( 17 - 18) =     -5.62872  eV     2   -->   2 G_2            
     e( 19 - 20) =     -4.75125  eV     2   -->   2 G_2            
     e( 21 - 22) =     -4.09685  eV     2   -->   2 G_2            
     e( 23 - 24) =     -1.89146  eV     2   -->   2 G_2            
     e( 25 - 26) =     -1.36555  eV     2   -->   2 G_2            
     e( 27 - 28) =      2.56427  eV     2   -->   2 G_2            
     e( 29 - 30) =      3.79564  eV     2   -->   2 G_2            

 **************************************************************************

 **************************************************************************

                    xk=(   0.26640,   0.46142,   0.00000  )

     Band symmetry, C_1 (1)     double point group:

     e(  1 -  2) =    -16.11140  eV     2   -->   2 G_2            
     e(  3 -  4) =    -15.90647  eV     2   -->   2 G_2            
     e(  5 -  6) =     -9.05235  eV     2   -->   2 G_2            
[...]
     e( 27 - 28) =      2.56847  eV     2   -->   2 G_2            
     e( 29 - 30) =      3.22310  eV     2   -->   2 G_2            

 **************************************************************************

 **************************************************************************

                    xk=(   0.21645,   0.37490,   0.00000  )

     Band symmetry, C_1 (1)     double point group:

     e(  1 -  2) =    -16.42815  eV     2   -->   2 G_2            
     e(  3 -  4) =    -15.87422  eV     2   -->   2 G_2            
     e(  5 -  6) =     -8.87006  eV     2   -->   2 G_2            
     e(  7 -  8) =     -8.54253  eV     2   -->   2 G_2            
     e(  9 - 10) =     -7.97666  eV     2   -->   2 G_2            
     e( 11 - 12) =     -7.51694  eV     2   -->   2 G_2            
     e( 13 - 14) =     -7.03302  eV     2   -->   2 G_2            
     e( 15 - 16) =     -5.79501  eV     2   -->   2 G_2            
     e( 17 - 18) =     -5.02915  eV     2   -->   2 G_2            
     e( 19 - 20) =     -4.76168  eV     2   -->   2 G_2            
     e( 21 - 22) =     -3.63842  eV     2   -->   2 G_2            
     e( 23 - 24) =     -1.93527  eV     2   -->   2 G_2            
     e( 25 - 26) =     -1.30306  eV     2   -->   2 G_2            
     e( 27 - 28) =      2.59216  eV     2   -->   2 G_2            
     e( 29 - 30) =      3.11938  eV     2   -->   2 G_2            

 **************************************************************************

 **************************************************************************

                    xk=(   0.19980,   0.34606,   0.00000  )

     Band symmetry, C_1 (1)     double point group:

     e(  1 -  2) =    -16.55673  eV     2   -->   2 G_2            
     e(  3 -  4) =    -15.86124  eV     2   -->   2 G_2            
     e(  5 -  6) =     -8.79733  eV     2   -->   2 G_2            
     e(  7 -  8) =     -8.54595  eV     2   -->   2 G_2            
     e(  9 - 10) =     -7.98897  eV     2   -->   2 G_2            
     e( 11 - 12) =     -7.53848  eV     2   -->   2 G_2            
     e( 13 - 14) =     -7.01221  eV     2   -->   2 G_2            
     e( 15 - 16) =     -5.80263  eV     2   -->   2 G_2            
     e( 17 - 18) =     -4.86600  eV     2   -->   2 G_2            
     e( 19 - 20) =     -4.57022  eV     2   -->   2 G_2            
     e( 21 - 22) =     -3.54908  eV     2   -->   2 G_2            
     e( 23 - 24) =     -1.89251  eV     2   -->   2 G_2            
     e( 25 - 26) =     -1.39531  eV     2   -->   2 G_2            
     e( 27 - 28) =      2.62805  eV     2   -->   2 G_2            
     e( 29 - 30) =      3.03891  eV     2   -->   2 G_2            

 **************************************************************************

 **************************************************************************

                    xk=(   0.18315,   0.31723,   0.00000  )

     Band symmetry, C_1 (1)     double point group:

     e(  1 -  2) =    -16.69000  eV     2   -->   2 G_2            
     e(  3 -  4) =    -15.84779  eV     2   -->   2 G_2            
     e(  5 -  6) =     -8.76783  eV     2   -->   2 G_2            
     e(  7 -  8) =     -8.52904  eV     2   -->   2 G_2            
     e(  9 - 10) =     -8.00641  eV     2   -->   2 G_2            
     e( 11 - 12) =     -7.53703  eV     2   -->   2 G_2            
     e( 13 - 14) =     -6.97485  eV     2   -->   2 G_2            
     e( 15 - 16) =     -5.80871  eV     2   -->   2 G_2            
     e( 17 - 18) =     -4.68410  eV     2   -->   2 G_2            
     e( 19 - 20) =     -4.35524  eV     2   -->   2 G_2            
     e( 21 - 22) =     -3.47824  eV     2   -->   2 G_2            
     e( 23 - 24) =     -1.82294  eV     2   -->   2 G_2            
     e( 25 - 26) =     -1.51399  eV     2   -->   2 G_2            
     e( 27 - 28) =      2.67580  eV     2   -->   2 G_2            
     e( 29 - 30) =      2.96280  eV     2   -->   2 G_2            

 **************************************************************************

 **************************************************************************

                    xk=(   0.16650,   0.28839,   0.00000  )

     Band symmetry, C_1 (1)     double point group:

     e(  1 -  2) =    -16.82402  eV     2   -->   2 G_2            
     e(  3 -  4) =    -15.83424  eV     2   -->   2 G_2            
     e(  5 -  6) =     -8.78048  eV     2   -->   2 G_2            
     e(  7 -  8) =     -8.50993  eV     2   -->   2 G_2            
     e(  9 - 10) =     -8.03376  eV     2   -->   2 G_2            
     e( 11 - 12) =     -7.48852  eV     2   -->   2 G_2            
     e( 13 - 14) =     -6.92193  eV     2   -->   2 G_2            
     e( 15 - 16) =     -5.79912  eV     2   -->   2 G_2            
     e( 17 - 18) =     -4.49263  eV     2   -->   2 G_2            
     e( 19 - 20) =     -4.14035  eV     2   -->   2 G_2            
     e( 21 - 22) =     -3.42938  eV     2   -->   2 G_2            
     e( 23 - 24) =     -1.72875  eV     2   -->   2 G_2            
     e( 25 - 26) =     -1.63476  eV     2   -->   2 G_2            
     e( 27 - 28) =      2.72965  eV     2   -->   2 G_2            
     e( 29 - 30) =      2.87802  eV     2   -->   2 G_2            

 **************************************************************************

 **************************************************************************

                    xk=(   0.14985,   0.25955,   0.00000  )

     Band symmetry, C_1 (1)     double point group:

     e(  1 -  2) =    -16.95516  eV     2   -->   2 G_2            
     e(  3 -  4) =    -15.82095  eV     2   -->   2 G_2            
     e(  5 -  6) =     -8.81048  eV     2   -->   2 G_2            
     e(  7 -  8) =     -8.51364  eV     2   -->   2 G_2            
     e(  9 - 10) =     -8.08297  eV     2   -->   2 G_2            
     e( 11 - 12) =     -7.37929  eV     2   -->   2 G_2            
     e( 13 - 14) =     -6.85505  eV     2   -->   2 G_2            
     e( 15 - 16) =     -5.76604  eV     2   -->   2 G_2            
     e( 17 - 18) =     -4.30825  eV     2   -->   2 G_2            
     e( 19 - 20) =     -3.93829  eV     2   -->   2 G_2            
     e( 21 - 22) =     -3.40549  eV     2   -->   2 G_2            
     e( 23 - 24) =     -1.75847  eV     2   -->   2 G_2            
     e( 25 - 26) =     -1.58453  eV     2   -->   2 G_2            
     e( 27 - 28) =      2.70117  eV     2   -->   2 G_2            
     e( 29 - 30) =      2.75952  eV     2   -->   2 G_2            

 **************************************************************************

 **************************************************************************

                    xk=(   0.13320,   0.23071,   0.00000  )

     Band symmetry, C_1 (1)     double point group:

     e(  1 -  2) =    -17.08023  eV     2   -->   2 G_2            
     e(  3 -  4) =    -15.80827  eV     2   -->   2 G_2            
     e(  5 -  6) =     -8.84346  eV     2   -->   2 G_2            
     e(  7 -  8) =     -8.53957  eV     2   -->   2 G_2            
     e(  9 - 10) =     -8.15299  eV     2   -->   2 G_2            
     e( 11 - 12) =     -7.22606  eV     2   -->   2 G_2            
     e( 13 - 14) =     -6.77717  eV     2   -->   2 G_2            
     e( 15 - 16) =     -5.70415  eV     2   -->   2 G_2            
     e( 17 - 18) =     -4.14880  eV     2   -->   2 G_2            
     e( 19 - 20) =     -3.75951  eV     2   -->   2 G_2            
     e( 21 - 22) =     -3.40738  eV     2   -->   2 G_2            
     e( 23 - 24) =     -1.82115  eV     2   -->   2 G_2            
     e( 25 - 26) =     -1.42996  eV     2   -->   2 G_2            
     e( 27 - 28) =      2.47961  eV     2   -->   2 G_2            
     e( 29 - 30) =      2.63991  eV     2   -->   2 G_2            

 **************************************************************************

 **************************************************************************

                    xk=(   0.11655,   0.20187,   0.00000  )

     Band symmetry, C_1 (1)     double point group:

     e(  1 -  2) =    -17.19647  eV     2   -->   2 G_2            
     e(  3 -  4) =    -15.79651  eV     2   -->   2 G_2            
     e(  5 -  6) =     -8.87379  eV     2   -->   2 G_2            
     e(  7 -  8) =     -8.57788  eV     2   -->   2 G_2            
     e(  9 - 10) =     -8.23293  eV     2   -->   2 G_2            
     e( 11 - 12) =     -7.05869  eV     2   -->   2 G_2            
     e( 13 - 14) =     -6.69254  eV     2   -->   2 G_2            
     e( 15 - 16) =     -5.60854  eV     2   -->   2 G_2            
     e( 17 - 18) =     -4.02896  eV     2   -->   2 G_2            
     e( 19 - 20) =     -3.62153  eV     2   -->   2 G_2            
     e( 21 - 22) =     -3.42586  eV     2   -->   2 G_2            
     e( 23 - 24) =     -1.81268  eV     2   -->   2 G_2            
     e( 25 - 26) =     -1.25620  eV     2   -->   2 G_2            
     e( 27 - 28) =      2.24280  eV     2   -->   2 G_2            
     e( 29 - 30) =      2.51511  eV     2   -->   2 G_2            

 **************************************************************************

 **************************************************************************

                    xk=(   0.09990,   0.17303,   0.00000  )

     Band symmetry, C_1 (1)     double point group:

     e(  1 -  2) =    -17.30154  eV     2   -->   2 G_2            
     e(  3 -  4) =    -15.78591  eV     2   -->   2 G_2            
     e(  5 -  6) =     -8.89968  eV     2   -->   2 G_2            
     e(  7 -  8) =     -8.62071  eV     2   -->   2 G_2            
     e(  9 - 10) =     -8.31228  eV     2   -->   2 G_2            
     e( 11 - 12) =     -6.90192  eV     2   -->   2 G_2            
     e( 13 - 14) =     -6.60646  eV     2   -->   2 G_2            
     e( 15 - 16) =     -5.47632  eV     2   -->   2 G_2            
     e( 17 - 18) =     -3.95885  eV     2   -->   2 G_2            
     e( 19 - 20) =     -3.56615  eV     2   -->   2 G_2            
     e( 21 - 22) =     -3.41718  eV     2   -->   2 G_2            
     e( 23 - 24) =     -1.71508  eV     2   -->   2 G_2            
     e( 25 - 26) =     -1.07726  eV     2   -->   2 G_2            
     e( 27 - 28) =      2.00498  eV     2   -->   2 G_2            
     e( 29 - 30) =      2.39086  eV     2   -->   2 G_2            

 **************************************************************************

 **************************************************************************

                    xk=(   0.08325,   0.14419,   0.00000  )

     Band symmetry, C_1 (1)     double point group:

     e(  1 -  2) =    -17.39349  eV     2   -->   2 G_2            
     e(  3 -  4) =    -15.77669  eV     2   -->   2 G_2            
     e(  5 -  6) =     -8.92110  eV     2   -->   2 G_2            
     e(  7 -  8) =     -8.66317  eV     2   -->   2 G_2            
     e(  9 - 10) =     -8.38345  eV     2   -->   2 G_2            
     e( 11 - 12) =     -6.77014  eV     2   -->   2 G_2            
     e( 13 - 14) =     -6.52444  eV     2   -->   2 G_2            
     e( 15 - 16) =     -5.31104  eV     2   -->   2 G_2            
     e( 17 - 18) =     -3.94598  eV     2   -->   2 G_2            
     e( 19 - 20) =     -3.58455  eV     2   -->   2 G_2            
     e( 21 - 22) =     -3.36887  eV     2   -->   2 G_2            
     e( 23 - 24) =     -1.53333  eV     2   -->   2 G_2            
     e( 25 - 26) =     -0.90691  eV     2   -->   2 G_2            
     e( 27 - 28) =      1.76772  eV     2   -->   2 G_2            
     e( 29 - 30) =      2.27281  eV     2   -->   2 G_2            

 **************************************************************************

 **************************************************************************

                    xk=(   0.06660,   0.11535,   0.00000  )

     Band symmetry, C_1 (1)     double point group:

     e(  1 -  2) =    -17.47075  eV     2   -->   2 G_2            
     e(  3 -  4) =    -15.76900  eV     2   -->   2 G_2            
     e(  5 -  6) =     -8.93866  eV     2   -->   2 G_2            
     e(  7 -  8) =     -8.70222  eV     2   -->   2 G_2            
     e(  9 - 10) =     -8.44168  eV     2   -->   2 G_2            
     e( 11 - 12) =     -6.66816  eV     2   -->   2 G_2            
     e( 13 - 14) =     -6.45079  eV     2   -->   2 G_2            
     e( 15 - 16) =     -5.12563  eV     2   -->   2 G_2            
     e( 17 - 18) =     -3.98639  eV     2   -->   2 G_2            
     e( 19 - 20) =     -3.60450  eV     2   -->   2 G_2            
     e( 21 - 22) =     -3.32768  eV     2   -->   2 G_2            
     e( 23 - 24) =     -1.29151  eV     2   -->   2 G_2            
     e( 25 - 26) =     -0.75732  eV     2   -->   2 G_2            
     e( 27 - 28) =      1.53736  eV     2   -->   2 G_2            
     e( 29 - 30) =      2.16240  eV     2   -->   2 G_2            

 **************************************************************************

 **************************************************************************

                    xk=(   0.04995,   0.08652,   0.00000  )

     Band symmetry, C_1 (1)     double point group:

     e(  1 -  2) =    -17.53208  eV     2   -->   2 G_2            
     e(  3 -  4) =    -15.76294  eV     2   -->   2 G_2            
     e(  5 -  6) =     -8.95288  eV     2   -->   2 G_2            
     e(  7 -  8) =     -8.73565  eV     2   -->   2 G_2            
     e(  9 - 10) =     -8.48495  eV     2   -->   2 G_2            
     e( 11 - 12) =     -6.59496  eV     2   -->   2 G_2            
     e( 13 - 14) =     -6.38833  eV     2   -->   2 G_2            
     e( 15 - 16) =     -4.94064  eV     2   -->   2 G_2            
     e( 17 - 18) =     -4.05546  eV     2   -->   2 G_2            
     e( 19 - 20) =     -3.61473  eV     2   -->   2 G_2            
     e( 21 - 22) =     -3.29836  eV     2   -->   2 G_2            
     e( 23 - 24) =     -1.02281  eV     2   -->   2 G_2            
     e( 25 - 26) =     -0.63732  eV     2   -->   2 G_2            
     e( 27 - 28) =      1.32736  eV     2   -->   2 G_2            
     e( 29 - 30) =      2.05363  eV     2   -->   2 G_2            

 **************************************************************************

 **************************************************************************

                    xk=(   0.03330,   0.05768,   0.00000  )

     Band symmetry, C_1 (1)     double point group:

     e(  1 -  2) =    -17.57653  eV     2   -->   2 G_2            
     e(  3 -  4) =    -15.75858  eV     2   -->   2 G_2            
     e(  5 -  6) =     -8.96373  eV     2   -->   2 G_2            
     e(  7 -  8) =     -8.76140  eV     2   -->   2 G_2            
     e(  9 - 10) =     -8.51366  eV     2   -->   2 G_2            
     e( 11 - 12) =     -6.54695  eV     2   -->   2 G_2            
     e( 13 - 14) =     -6.33987  eV     2   -->   2 G_2            
     e( 15 - 16) =     -4.77979  eV     2   -->   2 G_2            
     e( 17 - 18) =     -4.12618  eV     2   -->   2 G_2            
     e( 19 - 20) =     -3.62190  eV     2   -->   2 G_2            
     e( 21 - 22) =     -3.27683  eV     2   -->   2 G_2            
     e( 23 - 24) =     -0.76723  eV     2   -->   2 G_2            
     e( 25 - 26) =     -0.55105  eV     2   -->   2 G_2            
     e( 27 - 28) =      1.15675  eV     2   -->   2 G_2            
     e( 29 - 30) =      1.92996  eV     2   -->   2 G_2            

 **************************************************************************

 **************************************************************************

                    xk=(   0.01665,   0.02884,   0.00000  )

     Band symmetry, C_1 (1)     double point group:

     e(  1 -  2) =    -17.60346  eV     2   -->   2 G_2            
     e(  3 -  4) =    -15.75595  eV     2   -->   2 G_2            
     e(  5 -  6) =     -8.97067  eV     2   -->   2 G_2            
     e(  7 -  8) =     -8.77767  eV     2   -->   2 G_2            
     e(  9 - 10) =     -8.52964  eV     2   -->   2 G_2            
     e( 11 - 12) =     -6.52010  eV     2   -->   2 G_2            
     e( 13 - 14) =     -6.30883  eV     2   -->   2 G_2            
     e( 15 - 16) =     -4.66698  eV     2   -->   2 G_2            
     e( 17 - 18) =     -4.17974  eV     2   -->   2 G_2            
     e( 19 - 20) =     -3.62771  eV     2   -->   2 G_2            
     e( 21 - 22) =     -3.26238  eV     2   -->   2 G_2            
     e( 23 - 24) =     -0.57959  eV     2   -->   2 G_2            
     e( 25 - 26) =     -0.49457  eV     2   -->   2 G_2            
     e( 27 - 28) =      1.04510  eV     2   -->   2 G_2            
     e( 29 - 30) =      1.80249  eV     2   -->   2 G_2            

 **************************************************************************

 **************************************************************************

                    xk=(   0.00000,   0.00000,   0.00000  )

     double point group C_3v (3m)  
     there are  6 classes and  3 irreducible representations
     the character table:

       E     -E    2C3   -2C3  3s_v  -3s_v
                                          
G_4    2.00 -2.00  1.00 -1.00  0.00  0.00
G_5    1.00 -1.00 -1.00  1.00  0.00  0.00
G_6    1.00 -1.00 -1.00  1.00  0.00  0.00

     imaginary part

       E     -E    2C3   -2C3  3s_v  -3s_v
                                          
G_4    0.00  0.00  0.00  0.00  0.00  0.00
G_5    0.00  0.00  0.00  0.00  1.00 -1.00
G_6    0.00  0.00  0.00  0.00 -1.00  1.00

     the symmetry operations in each class and the name of the first element:

     E             1
                                                                 
     -E           -1
                                                                 
     2C3           2    3
                                                                 
     -2C3         -2   -3
                                                                 
     3s_v          5    6   -4
                                                                 
     -3s_v         4   -5   -6
                                                                 

     Band symmetry, C_3v (3m)   double point group:

     e(  1 -  2) =    -17.61248  eV     2   --> G_4   L_6      
     e(  3 -  4) =    -15.75507  eV     2   --> G_4   L_6      
     e(  5 -  6) =     -8.97308  eV     2   --> G_5   L_4      
     e(  5 -  6) =     -8.97308  eV     2   --> G_6   L_5      
     e(  7 -  8) =     -8.78323  eV     2   --> G_4   L_6      
     e(  9 - 10) =     -8.53472  eV     2   --> G_4   L_6      
     e( 11 - 12) =     -6.51150  eV     2   --> G_4   L_6      
     e( 13 - 14) =     -6.29811  eV     2   --> G_5   L_4      
     e( 13 - 14) =     -6.29811  eV     2   --> G_6   L_5      
     e( 15 - 16) =     -4.62530  eV     2   --> G_4   L_6      
     e( 17 - 18) =     -4.20055  eV     2   --> G_4   L_6      
     e( 19 - 20) =     -3.63011  eV     2   --> G_4   L_6      
     e( 21 - 22) =     -3.25711  eV     2   --> G_5   L_4      
     e( 21 - 22) =     -3.25711  eV     2   --> G_6   L_5      
     e( 23 - 24) =     -0.52065  eV     2   --> G_5   L_4      
     e( 23 - 24) =     -0.52065  eV     2   --> G_6   L_5      
     e( 25 - 26) =     -0.46273  eV     2   --> G_4   L_6      
     e( 27 - 28) =      1.00630  eV     2   --> G_4   L_6      
     e( 29 - 30) =      1.74532  eV     2   --> G_4   L_6      

 **************************************************************************

     BANDS        :  10m29.32s CPU  11m25.29s WALL


   This run was terminated on:  14:31:14  19Jun2025            

=------------------------------------------------------------------------------=
   JOB DONE.
=------------------------------------------------------------------------------=
