
     Program PWSCF v.7.2 starts on 19Jun2025 at 14: 9:19 

     This program is part of the open-source Quantum ESPRESSO suite
     for quantum simulation of materials; please cite
         "P. Giannozzi et al., J. Phys.:Condens. Matter 21 395502 (2009);
         "P. Giannozzi et al., J. Phys.:Condens. Matter 29 465901 (2017);
         "P. Giannozzi et al., J. Chem. Phys. 152 154105 (2020);
          URL http://www.quantum-espresso.org", 
     in publications or presentations arising from this work. More details at
     http://www.quantum-espresso.org/quote

     Parallel version (MPI & OpenMP), running on      10 processor cores
     Number of MPI processes:                10
     Threads/MPI process:                     1

     MPI processes distributed on     1 nodes
     73274 MiB available memory on the printing compute node when the environment starts

     Reading input from ptse2.bands.in

     Current dimensions of program PWSCF are:
     Max number of different atomic species (ntypx) = 10
     Max number of k-points (npk) =  40000
     Max angular momentum in pseudopotentials (lmaxx) =  4

     Atomic positions and unit cell read from directory:
     ./tmp/ptse2.save/
     Atomic positions from file used, from input discarded

     file Pt.rel.UPF: wavefunction(s)  5D renormalized
     Message from routine setup:
     using ibrav=0 with symmetry is DISCOURAGED, use correct ibrav instead

     R & G space division:  proc/nbgrp/npool/nimage =      10
     Subspace diagonalization in iterative solution of the eigenvalue problem:
     a serial algorithm will be used


     Parallelization info
     --------------------
     sticks:   dense  smooth     PW     G-vecs:    dense   smooth      PW
     Min         409     163     45               170929    43257    6321
     Max         410     164     46               170954    43296    6342
     Sum        4093    1639    451              1709389   432857   63275

     Using Slab Decomposition



     bravais-lattice index     =            0
     lattice parameter (alat)  =       7.0430  a.u.
     unit-cell volume          =    2435.3830 (a.u.)^3
     number of atoms/cell      =            3
     number of atomic types    =            2
     number of electrons       =        22.00
     number of Kohn-Sham states=           30
     kinetic-energy cutoff     =     120.0000  Ry
     charge density cutoff     =    1200.0000  Ry
     Exchange-correlation= LDA
                           (   1   1   0   0   0   0   0)
     Non magnetic calculation with spin-orbit


     celldm(1)=   7.043009  celldm(2)=   0.000000  celldm(3)=   0.000000
     celldm(4)=   0.000000  celldm(5)=   0.000000  celldm(6)=   0.000000

     crystal axes: (cart. coord. in units of alat)
               a(1) = (   1.000000   0.000000   0.000000 )  
               a(2) = (  -0.500000   0.866025   0.000000 )  
               a(3) = (   0.000000   0.000000   8.049369 )  

     reciprocal axes: (cart. coord. in units 2 pi/alat)
               b(1) = (  1.000000  0.577350 -0.000000 )  
               b(2) = (  0.000000  1.154701  0.000000 )  
               b(3) = (  0.000000 -0.000000  0.124233 )  


     PseudoPot. # 1 for Pt read from file:
     /opt/project/dorye_projects/brazil_kpm/lda_pp/Pt.rel.UPF
     MD5 check sum: 5554f0f06d78f1ca51ad76ba2c277092
     Pseudo is Ultrasoft + core correction, Zval = 10.0
     Generated using "atomic" code by A. Dal Corso  v.5.0.2 svn rev. 9415
     Using radial grid of 1277 points, 10 beta functions with: 
                l(1) =   0
                l(2) =   0
                l(3) =   1
                l(4) =   1
                l(5) =   1
                l(6) =   1
                l(7) =   2
                l(8) =   2
                l(9) =   2
               l(10) =   2
     Q(r) pseudized with 0 coefficients 


     PseudoPot. # 2 for Se read from file:
     /opt/project/dorye_projects/brazil_kpm/lda_pp/Se.rel.UPF
     MD5 check sum: bcfdccfb16ea464e2edc480fd9c7e735
     Pseudo is Ultrasoft + core correction, Zval =  6.0
     Generated using "atomic" code by A. Dal Corso  v.5.0.2 svn rev. 9415
     Using radial grid of 1211 points,  6 beta functions with: 
                l(1) =   0
                l(2) =   0
                l(3) =   1
                l(4) =   1
                l(5) =   1
                l(6) =   1
     Q(r) pseudized with 0 coefficients 


     atomic species   valence    mass     pseudopotential
        Pt            10.00   195.08000     Pt( 1.00)
        Se             6.00    78.97100     Se( 1.00)

      6 Sym. Ops. (no inversion) found


                                    s                        frac. trans.

      isym =  1     identity                                     

 cryst.   s( 1) = (     1          0          0      )
                  (     0          1          0      )
                  (     0          0          1      )

 cart.    s( 1) = (  1.0000000  0.0000000  0.0000000 )
                  (  0.0000000  1.0000000  0.0000000 )
                  (  0.0000000  0.0000000  1.0000000 )


      isym =  2     120 deg rotation - cryst. axis [0,0,1]       

 cryst.   s( 2) = (     0          1          0      )
                  (    -1         -1          0      )
                  (     0          0          1      )

 cart.    s( 2) = ( -0.5000000 -0.8660254  0.0000000 )
                  (  0.8660254 -0.5000000  0.0000000 )
                  (  0.0000000  0.0000000  1.0000000 )


      isym =  3     120 deg rotation - cryst. axis [0,0,-1]      

 cryst.   s( 3) = (    -1         -1          0      )
                  (     1          0          0      )
                  (     0          0          1      )

 cart.    s( 3) = ( -0.5000000  0.8660254  0.0000000 )
                  ( -0.8660254 -0.5000000  0.0000000 )
                  (  0.0000000  0.0000000  1.0000000 )


      isym =  4     inv. 180 deg rotation - cart. axis [1,0,0]   

 cryst.   s( 4) = (    -1          0          0      )
                  (     1          1          0      )
                  (     0          0          1      )

 cart.    s( 4) = ( -1.0000000  0.0000000  0.0000000 )
                  (  0.0000000  1.0000000  0.0000000 )
                  (  0.0000000  0.0000000  1.0000000 )


      isym =  5     inv. 180 deg rotation - cryst. axis [0,1,0]  

 cryst.   s( 5) = (     1          1          0      )
                  (     0         -1          0      )
                  (     0          0          1      )

 cart.    s( 5) = (  0.5000000  0.8660254  0.0000000 )
                  (  0.8660254 -0.5000000  0.0000000 )
                  (  0.0000000  0.0000000  1.0000000 )


      isym =  6     inv. 180 deg rotation - cryst. axis [1,1,0]  

 cryst.   s( 6) = (     0         -1          0      )
                  (    -1          0          0      )
                  (     0          0          1      )

 cart.    s( 6) = (  0.5000000 -0.8660254  0.0000000 )
                  ( -0.8660254 -0.5000000  0.0000000 )
                  (  0.0000000  0.0000000  1.0000000 )


   Cartesian axes

     site n.     atom                  positions (alat units)
         1           Pt  tau(   1) = (   0.0000000   0.0000000   1.3635632  )
         2           Se  tau(   2) = (  -0.0000005   0.5773506   1.7112718  )
         3           Se  tau(   3) = (   0.5000005   0.2886748   1.0158546  )

   Crystallographic axes

     site n.     atom                  positions (cryst. coord.)
         1           Pt  tau(   1) = (  0.0000000  0.0000000  0.1694000  )
         2           Se  tau(   2) = (  0.3333330  0.6666670  0.2125970  )
         3           Se  tau(   3) = (  0.6666670  0.3333330  0.1262030  )

     number of k points=    61  Marzari-Vanderbilt smearing, width (Ry)=  0.0030
                       cart. coord. in units 2pi/alat
        k(    1) = (   0.0000000   0.0000000   0.0000000), wk =   0.0163934
        k(    2) = (   0.0250000   0.0144338   0.0000000), wk =   0.0163934
        k(    3) = (   0.0500000   0.0288675   0.0000000), wk =   0.0163934
        k(    4) = (   0.0750000   0.0433013   0.0000000), wk =   0.0163934
        k(    5) = (   0.1000000   0.0577350   0.0000000), wk =   0.0163934
        k(    6) = (   0.1250000   0.0721688   0.0000000), wk =   0.0163934
        k(    7) = (   0.1500000   0.0866025   0.0000000), wk =   0.0163934
        k(    8) = (   0.1750000   0.1010363   0.0000000), wk =   0.0163934
        k(    9) = (   0.2000000   0.1154701   0.0000000), wk =   0.0163934
        k(   10) = (   0.2250000   0.1299038   0.0000000), wk =   0.0163934
        k(   11) = (   0.2500000   0.1443376   0.0000000), wk =   0.0163934
        k(   12) = (   0.2750000   0.1587713   0.0000000), wk =   0.0163934
        k(   13) = (   0.3000000   0.1732051   0.0000000), wk =   0.0163934
        k(   14) = (   0.3250000   0.1876388   0.0000000), wk =   0.0163934
        k(   15) = (   0.3500000   0.2020726   0.0000000), wk =   0.0163934
        k(   16) = (   0.3750000   0.2165064   0.0000000), wk =   0.0163934
        k(   17) = (   0.4000000   0.2309401   0.0000000), wk =   0.0163934
        k(   18) = (   0.4250000   0.2453739   0.0000000), wk =   0.0163934
        k(   19) = (   0.4500000   0.2598076   0.0000000), wk =   0.0163934
        k(   20) = (   0.4750000   0.2742414   0.0000000), wk =   0.0163934
        k(   21) = (   0.5000000   0.2886751   0.0000000), wk =   0.0163934
        k(   22) = (   0.4916500   0.3030800   0.0000000), wk =   0.0163934
        k(   23) = (   0.4833000   0.3174849   0.0000000), wk =   0.0163934
        k(   24) = (   0.4749500   0.3318898   0.0000000), wk =   0.0163934
        k(   25) = (   0.4666000   0.3462947   0.0000000), wk =   0.0163934
        k(   26) = (   0.4582500   0.3606996   0.0000000), wk =   0.0163934
        k(   27) = (   0.4499000   0.3751045   0.0000000), wk =   0.0163934
        k(   28) = (   0.4415500   0.3895094   0.0000000), wk =   0.0163934
        k(   29) = (   0.4332000   0.4039142   0.0000000), wk =   0.0163934
        k(   30) = (   0.4248500   0.4183191   0.0000000), wk =   0.0163934
        k(   31) = (   0.4165000   0.4327240   0.0000000), wk =   0.0163934
        k(   32) = (   0.4081500   0.4471289   0.0000000), wk =   0.0163934
        k(   33) = (   0.3998000   0.4615338   0.0000000), wk =   0.0163934
        k(   34) = (   0.3914500   0.4759387   0.0000000), wk =   0.0163934
        k(   35) = (   0.3831000   0.4903436   0.0000000), wk =   0.0163934
        k(   36) = (   0.3747500   0.5047485   0.0000000), wk =   0.0163934
        k(   37) = (   0.3664000   0.5191534   0.0000000), wk =   0.0163934
        k(   38) = (   0.3580500   0.5335583   0.0000000), wk =   0.0163934
        k(   39) = (   0.3497000   0.5479631   0.0000000), wk =   0.0163934
        k(   40) = (   0.3413500   0.5623680   0.0000000), wk =   0.0163934
        k(   41) = (   0.3330000   0.5767729   0.0000000), wk =   0.0163934
        k(   42) = (   0.3163500   0.5479343   0.0000000), wk =   0.0163934
        k(   43) = (   0.2997000   0.5190956   0.0000000), wk =   0.0163934
        k(   44) = (   0.2830500   0.4902570   0.0000000), wk =   0.0163934
        k(   45) = (   0.2664000   0.4614183   0.0000000), wk =   0.0163934
        k(   46) = (   0.2497500   0.4325797   0.0000000), wk =   0.0163934
        k(   47) = (   0.2331000   0.4037410   0.0000000), wk =   0.0163934
        k(   48) = (   0.2164500   0.3749024   0.0000000), wk =   0.0163934
        k(   49) = (   0.1998000   0.3460638   0.0000000), wk =   0.0163934
        k(   50) = (   0.1831500   0.3172251   0.0000000), wk =   0.0163934
        k(   51) = (   0.1665000   0.2883865   0.0000000), wk =   0.0163934
        k(   52) = (   0.1498500   0.2595478   0.0000000), wk =   0.0163934
        k(   53) = (   0.1332000   0.2307092   0.0000000), wk =   0.0163934
        k(   54) = (   0.1165500   0.2018705   0.0000000), wk =   0.0163934
        k(   55) = (   0.0999000   0.1730319   0.0000000), wk =   0.0163934
        k(   56) = (   0.0832500   0.1441932   0.0000000), wk =   0.0163934
        k(   57) = (   0.0666000   0.1153546   0.0000000), wk =   0.0163934
        k(   58) = (   0.0499500   0.0865159   0.0000000), wk =   0.0163934
        k(   59) = (   0.0333000   0.0576773   0.0000000), wk =   0.0163934
        k(   60) = (   0.0166500   0.0288386   0.0000000), wk =   0.0163934
        k(   61) = (   0.0000000   0.0000000   0.0000000), wk =   0.0163934

                       cryst. coord.
        k(    1) = (   0.0000000   0.0000000   0.0000000), wk =   0.0163934
        k(    2) = (   0.0250000   0.0000000   0.0000000), wk =   0.0163934
        k(    3) = (   0.0500000   0.0000000   0.0000000), wk =   0.0163934
        k(    4) = (   0.0750000   0.0000000   0.0000000), wk =   0.0163934
        k(    5) = (   0.1000000   0.0000000   0.0000000), wk =   0.0163934
        k(    6) = (   0.1250000   0.0000000   0.0000000), wk =   0.0163934
        k(    7) = (   0.1500000   0.0000000   0.0000000), wk =   0.0163934
        k(    8) = (   0.1750000   0.0000000   0.0000000), wk =   0.0163934
        k(    9) = (   0.2000000   0.0000000   0.0000000), wk =   0.0163934
        k(   10) = (   0.2250000   0.0000000   0.0000000), wk =   0.0163934
        k(   11) = (   0.2500000   0.0000000   0.0000000), wk =   0.0163934
        k(   12) = (   0.2750000   0.0000000   0.0000000), wk =   0.0163934
        k(   13) = (   0.3000000   0.0000000   0.0000000), wk =   0.0163934
        k(   14) = (   0.3250000   0.0000000   0.0000000), wk =   0.0163934
        k(   15) = (   0.3500000   0.0000000   0.0000000), wk =   0.0163934
        k(   16) = (   0.3750000   0.0000000   0.0000000), wk =   0.0163934
        k(   17) = (   0.4000000   0.0000000   0.0000000), wk =   0.0163934
        k(   18) = (   0.4250000   0.0000000   0.0000000), wk =   0.0163934
        k(   19) = (   0.4500000   0.0000000   0.0000000), wk =   0.0163934
        k(   20) = (   0.4750000   0.0000000   0.0000000), wk =   0.0163934
        k(   21) = (   0.5000000   0.0000000   0.0000000), wk =   0.0163934
        k(   22) = (   0.4916500   0.0166500   0.0000000), wk =   0.0163934
        k(   23) = (   0.4833000   0.0333000   0.0000000), wk =   0.0163934
        k(   24) = (   0.4749500   0.0499500   0.0000000), wk =   0.0163934
        k(   25) = (   0.4666000   0.0666000   0.0000000), wk =   0.0163934
        k(   26) = (   0.4582500   0.0832500   0.0000000), wk =   0.0163934
        k(   27) = (   0.4499000   0.0999000   0.0000000), wk =   0.0163934
        k(   28) = (   0.4415500   0.1165500   0.0000000), wk =   0.0163934
        k(   29) = (   0.4332000   0.1332000   0.0000000), wk =   0.0163934
        k(   30) = (   0.4248500   0.1498500   0.0000000), wk =   0.0163934
        k(   31) = (   0.4165000   0.1665000   0.0000000), wk =   0.0163934
        k(   32) = (   0.4081500   0.1831500   0.0000000), wk =   0.0163934
        k(   33) = (   0.3998000   0.1998000   0.0000000), wk =   0.0163934
        k(   34) = (   0.3914500   0.2164500   0.0000000), wk =   0.0163934
        k(   35) = (   0.3831000   0.2331000   0.0000000), wk =   0.0163934
        k(   36) = (   0.3747500   0.2497500   0.0000000), wk =   0.0163934
        k(   37) = (   0.3664000   0.2664000   0.0000000), wk =   0.0163934
        k(   38) = (   0.3580500   0.2830500   0.0000000), wk =   0.0163934
        k(   39) = (   0.3497000   0.2997000   0.0000000), wk =   0.0163934
        k(   40) = (   0.3413500   0.3163500   0.0000000), wk =   0.0163934
        k(   41) = (   0.3330000   0.3330000   0.0000000), wk =   0.0163934
        k(   42) = (   0.3163500   0.3163500   0.0000000), wk =   0.0163934
        k(   43) = (   0.2997000   0.2997000   0.0000000), wk =   0.0163934
        k(   44) = (   0.2830500   0.2830500   0.0000000), wk =   0.0163934
        k(   45) = (   0.2664000   0.2664000   0.0000000), wk =   0.0163934
        k(   46) = (   0.2497500   0.2497500   0.0000000), wk =   0.0163934
        k(   47) = (   0.2331000   0.2331000   0.0000000), wk =   0.0163934
        k(   48) = (   0.2164500   0.2164500   0.0000000), wk =   0.0163934
        k(   49) = (   0.1998000   0.1998000   0.0000000), wk =   0.0163934
        k(   50) = (   0.1831500   0.1831500   0.0000000), wk =   0.0163934
        k(   51) = (   0.1665000   0.1665000   0.0000000), wk =   0.0163934
        k(   52) = (   0.1498500   0.1498500   0.0000000), wk =   0.0163934
        k(   53) = (   0.1332000   0.1332000   0.0000000), wk =   0.0163934
        k(   54) = (   0.1165500   0.1165500   0.0000000), wk =   0.0163934
        k(   55) = (   0.0999000   0.0999000   0.0000000), wk =   0.0163934
        k(   56) = (   0.0832500   0.0832500   0.0000000), wk =   0.0163934
        k(   57) = (   0.0666000   0.0666000   0.0000000), wk =   0.0163934
        k(   58) = (   0.0499500   0.0499500   0.0000000), wk =   0.0163934
        k(   59) = (   0.0333000   0.0333000   0.0000000), wk =   0.0163934
        k(   60) = (   0.0166500   0.0166500   0.0000000), wk =   0.0163934
        k(   61) = (   0.0000000   0.0000000   0.0000000), wk =   0.0163934

     Dense  grid:  1709389 G-vectors     FFT dimensions: (  80,  80, 625)

     Smooth grid:   432857 G-vectors     FFT dimensions: (  50,  50, 400)

     Dynamical RAM for                 wfc:       4.95 MB

     Dynamical RAM for     wfc (w. buffer):       4.95 MB

     Dynamical RAM for           str. fact:       5.22 MB

     Dynamical RAM for           local pot:       0.00 MB

     Dynamical RAM for          nlocal pot:       5.11 MB

     Dynamical RAM for                qrad:      14.55 MB

     Dynamical RAM for          rho,v,vnew:      68.21 MB

     Dynamical RAM for           G-vectors:      10.11 MB

     Dynamical RAM for          h,s,v(r/c):       0.16 MB

     Dynamical RAM for          <psi|beta>:       0.06 MB

     Dynamical RAM for                 psi:       9.90 MB

     Dynamical RAM for                hpsi:       9.90 MB

     Dynamical RAM for                spsi:       9.90 MB

     Dynamical RAM for      wfcinit/wfcrot:       8.44 MB

     Dynamical RAM for           addusdens:    1596.22 MB

     Estimated static dynamical RAM per process >     140.59 MB

     Estimated max dynamical RAM per process >       1.70 GB

     Estimated total dynamical RAM >      16.96 GB

     The potential is recalculated from file :
     ./tmp/ptse2.save/charge-density


     negative rho (up, down):  6.488E-06 0.000E+00
     Starting wfcs are   34 randomized atomic wfcs

     Band Structure Calculation
     Davidson diagonalization with overlap

     Computing kpt #:     1  of    61
     total cpu time spent up to now is       16.8 secs

     Computing kpt #:     2  of    61
     total cpu time spent up to now is       26.2 secs

     Computing kpt #:     3  of    61
     total cpu time spent up to now is       36.5 secs

     Computing kpt #:     4  of    61
     total cpu time spent up to now is       47.3 secs

     Computing kpt #:     5  of    61
     total cpu time spent up to now is       58.1 secs

     Computing kpt #:     6  of    61
     total cpu time spent up to now is       69.0 secs

     Computing kpt #:     7  of    61
     total cpu time spent up to now is       80.1 secs

     Computing kpt #:     8  of    61
     total cpu time spent up to now is       91.3 secs

     Computing kpt #:     9  of    61
     total cpu time spent up to now is      102.4 secs

     Computing kpt #:    10  of    61
     total cpu time spent up to now is      113.3 secs

     Computing kpt #:    11  of    61
     total cpu time spent up to now is      124.3 secs

     Computing kpt #:    12  of    61
     total cpu time spent up to now is      135.0 secs

     Computing kpt #:    13  of    61
     total cpu time spent up to now is      145.7 secs

     Computing kpt #:    14  of    61
     total cpu time spent up to now is      155.9 secs

     Computing kpt #:    15  of    61
     total cpu time spent up to now is      165.4 secs

     Computing kpt #:    16  of    61
     total cpu time spent up to now is      174.7 secs

     Computing kpt #:    17  of    61
     total cpu time spent up to now is      183.8 secs

     Computing kpt #:    18  of    61
     total cpu time spent up to now is      192.9 secs

     Computing kpt #:    19  of    61
     total cpu time spent up to now is      201.5 secs

     Computing kpt #:    20  of    61
     total cpu time spent up to now is      210.1 secs

     Computing kpt #:    21  of    61
     total cpu time spent up to now is      218.5 secs

     Computing kpt #:    22  of    61
     total cpu time spent up to now is      226.8 secs

     Computing kpt #:    23  of    61
     total cpu time spent up to now is      235.5 secs

     Computing kpt #:    24  of    61
     total cpu time spent up to now is      244.1 secs

     Computing kpt #:    25  of    61
     total cpu time spent up to now is      252.7 secs

     Computing kpt #:    26  of    61
     total cpu time spent up to now is      261.4 secs

     Computing kpt #:    27  of    61
     total cpu time spent up to now is      270.2 secs

     Computing kpt #:    28  of    61
     total cpu time spent up to now is      279.1 secs

     Computing kpt #:    29  of    61
     total cpu time spent up to now is      288.0 secs

     Computing kpt #:    30  of    61
     total cpu time spent up to now is      296.9 secs

     Computing kpt #:    31  of    61
     total cpu time spent up to now is      306.3 secs

     Computing kpt #:    32  of    61
     total cpu time spent up to now is      316.5 secs

     Computing kpt #:    33  of    61
     total cpu time spent up to now is      326.7 secs

     Computing kpt #:    34  of    61
     total cpu time spent up to now is      337.0 secs

     Computing kpt #:    35  of    61
     total cpu time spent up to now is      347.5 secs

     Computing kpt #:    36  of    61
     total cpu time spent up to now is      357.9 secs

     Computing kpt #:    37  of    61
     total cpu time spent up to now is      368.7 secs

     Computing kpt #:    38  of    61
     total cpu time spent up to now is      379.4 secs

     Computing kpt #:    39  of    61
     total cpu time spent up to now is      389.7 secs

     Computing kpt #:    40  of    61
     total cpu time spent up to now is      400.3 secs

     Computing kpt #:    41  of    61
     total cpu time spent up to now is      410.7 secs

     Computing kpt #:    42  of    61
     total cpu time spent up to now is      420.9 secs

     Computing kpt #:    43  of    61
     total cpu time spent up to now is      430.2 secs

     Computing kpt #:    44  of    61
     total cpu time spent up to now is      439.3 secs

     Computing kpt #:    45  of    61
     total cpu time spent up to now is      448.5 secs

     Computing kpt #:    46  of    61
     total cpu time spent up to now is      457.8 secs

     Computing kpt #:    47  of    61
     total cpu time spent up to now is      467.2 secs

     Computing kpt #:    48  of    61
     total cpu time spent up to now is      476.9 secs

     Computing kpt #:    49  of    61
     total cpu time spent up to now is      487.2 secs

     Computing kpt #:    50  of    61
     total cpu time spent up to now is      497.9 secs

     Computing kpt #:    51  of    61
     total cpu time spent up to now is      510.0 secs

     Computing kpt #:    52  of    61
     total cpu time spent up to now is      525.2 secs

     Computing kpt #:    53  of    61
     total cpu time spent up to now is      536.9 secs

     Computing kpt #:    54  of    61
     total cpu time spent up to now is      548.1 secs

     Computing kpt #:    55  of    61
     total cpu time spent up to now is      559.2 secs

     Computing kpt #:    56  of    61
     total cpu time spent up to now is      569.9 secs

     Computing kpt #:    57  of    61
     total cpu time spent up to now is      580.6 secs

     Computing kpt #:    58  of    61
     total cpu time spent up to now is      591.4 secs

     Computing kpt #:    59  of    61
     total cpu time spent up to now is      601.9 secs

     Computing kpt #:    60  of    61
     total cpu time spent up to now is      612.0 secs

     Computing kpt #:    61  of    61
     total cpu time spent up to now is      621.8 secs

     ethr =  4.55E-10,  avg # of iterations = 44.8

     total cpu time spent up to now is      621.8 secs

     End of band structure calculation

          k = 0.0000 0.0000 0.0000 ( 54221 PWs)   bands (ev):

   -17.6125 -17.6125 -15.7551 -15.7551  -8.9731  -8.9731  -8.7832  -8.7832
    -8.5347  -8.5347  -6.5115  -6.5115  -6.2981  -6.2981  -4.6253  -4.6253
    -4.2006  -4.2006  -3.6301  -3.6301  -3.2571  -3.2571  -0.5207  -0.5207
    -0.4627  -0.4627   1.0063   1.0063   1.7453   1.7453

          k = 0.0250 0.0144 0.0000 ( 54213 PWs)   bands (ev):

   -17.6057 -17.6057 -15.7557 -15.7557  -8.9713  -8.9713  -8.7790  -8.7790
    -8.5309  -8.5309  -6.5179  -6.5179  -6.3062  -6.3062  -4.6569  -4.6569
    -4.1847  -4.1847  -3.6283  -3.6283  -3.2611  -3.2611  -0.5638  -0.5638
    -0.4883  -0.4883   1.0355   1.0355   1.7891   1.7891

          k = 0.0500 0.0289 0.0000 ( 54173 PWs)   bands (ev):

   -17.5854 -17.5854 -15.7577 -15.7577  -8.9660  -8.9660  -8.7667  -8.7667
    -8.5191  -8.5191  -6.5380  -6.5380  -6.3297  -6.3297  -4.7441  -4.7441
    -4.1428  -4.1428  -3.6236  -3.6236  -3.2722  -3.2722  -0.7107  -0.7107
    -0.5304  -0.5304   1.1204   1.1204   1.8938   1.8938

          k = 0.0750 0.0433 0.0000 ( 54155 PWs)   bands (ev):

   -17.5519 -17.5519 -15.7610 -15.7610  -8.9577  -8.9577  -8.7469  -8.7469
    -8.4981  -8.4981  -6.5740  -6.5740  -6.3661  -6.3661  -4.8719  -4.8719
    -4.0850  -4.0850  -3.6174  -3.6174  -3.2889  -3.2889  -0.9294  -0.9294
    -0.5835  -0.5835   1.2523   1.2523   2.0061   2.0061

          k = 0.1000 0.0577 0.0000 ( 54103 PWs)   bands (ev):

   -17.5055 -17.5055 -15.7656 -15.7656  -8.9470  -8.9470  -8.7205  -8.7205
    -8.4665  -8.4665  -6.6313  -6.6313  -6.4106  -6.4106  -5.0244  -5.0244
    -4.0228  -4.0228  -3.6091  -3.6091  -3.3106  -3.3106  -1.1839  -1.1839
    -0.6460  -0.6460   1.4185   1.4185   2.1040   2.1040

          k = 0.1250 0.0722 0.0000 ( 54101 PWs)   bands (ev):

   -17.4466 -17.4466 -15.7714 -15.7714  -8.9343  -8.9343  -8.6886  -8.6886
    -8.4236  -8.4236  -6.7170  -6.7170  -6.4563  -6.4563  -5.1853  -5.1853
    -3.9722  -3.9722  -3.5946  -3.5946  -3.3382  -3.3382  -1.4485  -1.4485
    -0.7116  -0.7116   1.6056   1.6056   2.1975   2.1975

          k = 0.1500 0.0866 0.0000 ( 54077 PWs)   bands (ev):

   -17.3762 -17.3762 -15.7785 -15.7785  -8.9199  -8.9199  -8.6520  -8.6520
    -8.3695  -8.3695  -6.8364  -6.8364  -6.4971  -6.4971  -5.3397  -5.3397
    -3.9520  -3.9520  -3.5718  -3.5718  -3.3730  -3.3730  -1.7008  -1.7008
    -0.7734  -0.7734   1.8018   1.8018   2.2929   2.2929

          k = 0.1750 0.1010 0.0000 ( 54071 PWs)   bands (ev):

   -17.2949 -17.2949 -15.7867 -15.7867  -8.9041  -8.9041  -8.6115  -8.6115
    -8.3064  -8.3064  -6.9873  -6.9873  -6.5302  -6.5302  -5.4761  -5.4761
    -3.9734  -3.9734  -3.5596  -3.5596  -3.4090  -3.4090  -1.9163  -1.9163
    -0.8257  -0.8257   1.9970   1.9971   2.3734   2.3734

          k = 0.2000 0.1155 0.0000 ( 54069 PWs)   bands (ev):

   -17.2040 -17.2040 -15.7959 -15.7959  -8.8875  -8.8875  -8.5680  -8.5680
    -8.2394  -8.2394  -7.1596  -7.1596  -6.5541  -6.5541  -5.5887  -5.5887
    -4.0362  -4.0362  -3.6016  -3.6016  -3.4325  -3.4325  -2.0669  -2.0669
    -0.8644  -0.8644   2.1649   2.1649   2.3456   2.3456

          k = 0.2250 0.1299 0.0000 ( 54013 PWs)   bands (ev):

   -17.1048 -17.1048 -15.8062 -15.8062  -8.8722  -8.8722  -8.5221  -8.5221
    -8.1791  -8.1791  -7.3326  -7.3326  -6.5674  -6.5674  -5.6770  -5.6770
    -4.1383  -4.1383  -3.7038  -3.7038  -3.4637  -3.4637  -2.1296  -2.1296
    -0.8880  -0.8880   2.1011   2.1011   2.4258   2.4258

          k = 0.2500 0.1443 0.0000 ( 54019 PWs)   bands (ev):

   -16.9989 -16.9989 -15.8173 -15.8173  -8.8633  -8.8633  -8.4744  -8.4744
    -8.1473  -8.1473  -7.4711  -7.4711  -6.5687  -6.5687  -5.7433  -5.7433
    -4.2786  -4.2786  -3.8445  -3.8445  -3.5254  -3.5254  -2.1045  -2.1045
    -0.8968  -0.8968   1.9163   1.9163   2.6039   2.6039

          k = 0.2750 0.1588 0.0000 ( 54025 PWs)   bands (ev):

   -16.8881 -16.8881 -15.8291 -15.8291  -8.8709  -8.8709  -8.4254  -8.4254
    -8.1696  -8.1696  -7.5315  -7.5315  -6.5570  -6.5570  -5.7909  -5.7909
    -4.4536  -4.4536  -4.0066  -4.0066  -3.6144  -3.6144  -2.0142  -2.0142
    -0.8930  -0.8930   1.7327   1.7327   2.7791   2.7791

          k = 0.3000 0.1732 0.0000 ( 54017 PWs)   bands (ev):

   -16.7748 -16.7748 -15.8416 -15.8416  -8.9120  -8.9120  -8.3802  -8.3802
    -8.2259  -8.2259  -7.5070  -7.5070  -6.5324  -6.5324  -5.8225  -5.8225
    -4.6531  -4.6531  -4.1784  -4.1784  -3.7230  -3.7230  -1.8852  -1.8852
    -0.8794  -0.8794   1.5674   1.5674   2.9300   2.9300

          k = 0.3250 0.1876 0.0000 ( 54043 PWs)   bands (ev):

   -16.6614 -16.6614 -15.8546 -15.8546  -9.0006  -9.0006  -8.3652  -8.3652
    -8.2360  -8.2360  -7.4340  -7.4340  -6.4966  -6.4966  -5.8398  -5.8398
    -4.8605  -4.8605  -4.3546  -4.3546  -3.8470  -3.8470  -1.7382  -1.7382
    -0.8592  -0.8592   1.4277   1.4277   3.0238   3.0238

          k = 0.3500 0.2021 0.0000 ( 54079 PWs)   bands (ev):

   -16.5507 -16.5507 -15.8682 -15.8682  -9.1301  -9.1301  -8.3798  -8.3798
    -8.1748  -8.1748  -7.3449  -7.3449  -6.4533  -6.4533  -5.8446  -5.8446
    -5.0562  -5.0562  -4.5333  -4.5333  -3.9841  -3.9841  -1.5877  -1.5877
    -0.8356  -0.8356   1.3168   1.3168   3.0266   3.0266

          k = 0.3750 0.2165 0.0000 ( 54038 PWs)   bands (ev):

   -16.4458 -16.4458 -15.8824 -15.8824  -9.2769  -9.2769  -8.3893  -8.3893
    -8.0826  -8.0826  -7.2612  -7.2612  -6.4084  -6.4084  -5.8394  -5.8394
    -5.2178  -5.2178  -4.7127  -4.7127  -4.1325  -4.1325  -1.4443  -1.4443
    -0.8112  -0.8112   1.2353   1.2353   2.9526   2.9526

          k = 0.4000 0.2309 0.0000 ( 54058 PWs)   bands (ev):

   -16.3500 -16.3500 -15.8975 -15.8975  -9.4191  -9.4191  -8.3926  -8.3926
    -7.9721  -7.9721  -7.2010  -7.2010  -6.3687  -6.3687  -5.8280  -5.8280
    -5.3207  -5.3207  -4.8902  -4.8902  -4.2889  -4.2889  -1.3165  -1.3165
    -0.7882  -0.7882   1.1813   1.1813   2.8472   2.8472

          k = 0.4250 0.2454 0.0000 ( 54076 PWs)   bands (ev):

   -16.2665 -16.2665 -15.9135 -15.9135  -9.5418  -9.5418  -8.3933  -8.3933
    -7.8485  -7.8485  -7.1814  -7.1814  -6.3394  -6.3394  -5.8087  -5.8087
    -5.3508  -5.3508  -5.0605  -5.0605  -4.4486  -4.4486  -1.2107  -1.2107
    -0.7683  -0.7683   1.1503   1.1503   2.7430   2.7430

          k = 0.4500 0.2598 0.0000 ( 54086 PWs)   bands (ev):

   -16.1991 -16.1991 -15.9298 -15.9298  -9.6355  -9.6355  -8.3933  -8.3933
    -7.7175  -7.7175  -7.2115  -7.2115  -6.3216  -6.3216  -5.7680  -5.7680
    -5.3361  -5.3361  -5.2014  -5.2014  -4.6028  -4.6028  -1.1321  -1.1321
    -0.7530  -0.7530   1.1360   1.1360   2.6581   2.6581

          k = 0.4750 0.2742 0.0000 ( 54086 PWs)   bands (ev):

   -16.1531 -16.1531 -15.9441 -15.9441  -9.6941  -9.6941  -8.3933  -8.3933
    -7.5907  -7.5907  -7.2820  -7.2820  -6.3124  -6.3124  -5.6988  -5.6988
    -5.4085  -5.4085  -5.2062  -5.2062  -4.7331  -4.7331  -1.0837  -1.0837
    -0.7433  -0.7433   1.1312   1.1312   2.6031   2.6031

          k = 0.5000 0.2887 0.0000 ( 54066 PWs)   bands (ev):

   -16.1361 -16.1361 -15.9503 -15.9503  -9.7140  -9.7140  -8.3933  -8.3933
    -7.5174  -7.5174  -7.3379  -7.3379  -6.3096  -6.3096  -5.6427  -5.6427
    -5.4832  -5.4832  -5.1733  -5.1733  -4.7922  -4.7922  -1.0675  -1.0675
    -0.7399  -0.7399   1.1303   1.1303   2.5841   2.5841

          k = 0.4916 0.3031 0.0000 ( 54060 PWs)   bands (ev):

   -16.1350 -16.1350 -15.9503 -15.9503  -9.7112  -9.7112  -8.3950  -8.3950
    -7.5191  -7.5191  -7.3333  -7.3333  -6.3155  -6.3155  -5.6584  -5.6584
    -5.5036  -5.5036  -5.1420  -5.1420  -4.7868  -4.7868  -1.0691  -1.0691
    -0.7538  -0.7538   1.1399   1.1399   2.6032   2.6032

          k = 0.4833 0.3175 0.0000 ( 54058 PWs)   bands (ev):

   -16.1319 -16.1319 -15.9502 -15.9502  -9.7027  -9.7027  -8.4000  -8.4000
    -7.5239  -7.5239  -7.3205  -7.3205  -6.3344  -6.3344  -5.7074  -5.7074
    -5.5371  -5.5371  -5.0733  -5.0733  -4.7704  -4.7704  -1.0739  -1.0739
    -0.7942  -0.7942   1.1684   1.1684   2.6589   2.6589

          k = 0.4749 0.3319 0.0000 ( 54054 PWs)   bands (ev):

   -16.1267 -16.1267 -15.9500 -15.9500  -9.6886  -9.6886  -8.4080  -8.4080
    -7.5305  -7.5305  -7.3011  -7.3011  -6.3699  -6.3699  -5.7784  -5.7784
    -5.5614  -5.5614  -4.9978  -4.9978  -4.7418  -4.7418  -1.0825  -1.0825
    -0.8570  -0.8570   1.2153   1.2153   2.7473   2.7473

          k = 0.4666 0.3463 0.0000 ( 54074 PWs)   bands (ev):

   -16.1197 -16.1197 -15.9498 -15.9498  -9.6690  -9.6690  -8.4187  -8.4187
    -7.5381  -7.5381  -7.2769  -7.2769  -6.4262  -6.4262  -5.8495  -5.8495
    -5.5799  -5.5799  -4.9295  -4.9295  -4.7004  -4.7004  -1.0959  -1.0959
    -0.9366  -0.9366   1.2798   1.2798   2.8625   2.8625

          k = 0.4582 0.3607 0.0000 ( 54076 PWs)   bands (ev):

   -16.1108 -16.1108 -15.9495 -15.9495  -9.6439  -9.6439  -8.4314  -8.4314
    -7.5465  -7.5465  -7.2496  -7.2496  -6.5056  -6.5056  -5.9070  -5.9070
    -5.5969  -5.5969  -4.8730  -4.8730  -4.6478  -4.6478  -1.1183  -1.1183
    -1.0232  -1.0232   1.3606   1.3606   2.9978   2.9978

          k = 0.4499 0.3751 0.0000 ( 54060 PWs)   bands (ev):

   -16.1003 -16.1003 -15.9490 -15.9490  -9.6134  -9.6134  -8.4457  -8.4457
    -7.5559  -7.5559  -7.2209  -7.2209  -6.6049  -6.6049  -5.9472  -5.9472
    -5.6138  -5.6138  -4.8270  -4.8270  -4.5890  -4.5890  -1.1693  -1.1693
    -1.0922  -1.0922   1.4559   1.4559   3.1464   3.1464

          k = 0.4415 0.3895 0.0000 ( 54040 PWs)   bands (ev):

   -16.0884 -16.0884 -15.9484 -15.9484  -9.5776  -9.5776  -8.4609  -8.4609
    -7.5677  -7.5677  -7.1928  -7.1928  -6.7160  -6.7160  -5.9726  -5.9726
    -5.6310  -5.6310  -4.7881  -4.7881  -4.5298  -4.5298  -1.2588  -1.2588
    -1.1289  -1.1289   1.5635   1.5635   3.3014   3.3014

          k = 0.4332 0.4039 0.0000 ( 54058 PWs)   bands (ev):

   -16.0753 -16.0753 -15.9476 -15.9476  -9.5368  -9.5368  -8.4765  -8.4765
    -7.5843  -7.5843  -7.1688  -7.1688  -6.8276  -6.8276  -5.9876  -5.9876
    -5.6483  -5.6483  -4.7538  -4.7538  -4.4741  -4.4741  -1.3571  -1.3571
    -1.1587  -1.1587   1.6807   1.6807   3.4569   3.4569

          k = 0.4248 0.4183 0.0000 ( 54038 PWs)   bands (ev):

   -16.0615 -16.0615 -15.9466 -15.9466  -9.4910  -9.4910  -8.4920  -8.4920
    -7.6095  -7.6095  -7.1572  -7.1572  -6.9228  -6.9228  -5.9961  -5.9961
    -5.6654  -5.6654  -4.7231  -4.7231  -4.4243  -4.4243  -1.4522  -1.4522
    -1.1899  -1.1899   1.8045   1.8045   3.6078   3.6078

          k = 0.4165 0.4327 0.0000 ( 54042 PWs)   bands (ev):

   -16.0471 -16.0471 -15.9452 -15.9452  -9.4406  -9.4406  -8.5070  -8.5070
    -7.6490  -7.6490  -7.1747  -7.1747  -6.9761  -6.9761  -6.0009  -6.0009
    -5.6817  -5.6817  -4.6955  -4.6955  -4.3818  -4.3818  -1.5395  -1.5395
    -1.2240  -1.2240   1.9311   1.9311   3.7508   3.7508

          k = 0.4081 0.4471 0.0000 ( 54026 PWs)   bands (ev):

   -16.0327 -16.0327 -15.9434 -15.9434  -9.3858  -9.3858  -8.5211  -8.5211
    -7.7087  -7.7087  -7.2193  -7.2193  -6.9816  -6.9816  -6.0044  -6.0044
    -5.6969  -5.6969  -4.6707  -4.6707  -4.3472  -4.3472  -1.6159  -1.6159
    -1.2614  -1.2614   2.0565   2.0565   3.8842   3.8842

          k = 0.3998 0.4615 0.0000 ( 54032 PWs)   bands (ev):

   -16.0188 -16.0188 -15.9410 -15.9410  -9.3270  -9.3270  -8.5340  -8.5340
    -7.7905  -7.7905  -7.2622  -7.2622  -6.9642  -6.9642  -6.0082  -6.0082
    -5.7107  -5.7107  -4.6485  -4.6485  -4.3206  -4.3206  -1.6793  -1.6793
    -1.3018  -1.3018   2.1763   2.1763   4.0073   4.0073

          k = 0.3914 0.4759 0.0000 ( 54062 PWs)   bands (ev):

   -16.0059 -16.0059 -15.9379 -15.9379  -9.2647  -9.2647  -8.5456  -8.5456
    -7.8896  -7.8896  -7.2914  -7.2914  -6.9395  -6.9395  -6.0134  -6.0134
    -5.7228  -5.7228  -4.6284  -4.6284  -4.3022  -4.3022  -1.7282  -1.7282
    -1.3450  -1.3450   2.2862   2.2862   4.1188   4.1188

          k = 0.3831 0.4903 0.0000 ( 54044 PWs)   bands (ev):

   -15.9946 -15.9946 -15.9339 -15.9339  -9.1995  -9.1995  -8.5559  -8.5559
    -7.9979  -7.9979  -7.3081  -7.3081  -6.9129  -6.9129  -6.0208  -6.0208
    -5.7333  -5.7333  -4.6096  -4.6096  -4.2918  -4.2918  -1.7620  -1.7620
    -1.3906  -1.3906   2.3822   2.3822   4.2139   4.2139

          k = 0.3747 0.5047 0.0000 ( 54044 PWs)   bands (ev):

   -15.9852 -15.9852 -15.9291 -15.9291  -9.1323  -9.1323  -8.5653  -8.5653
    -8.1080  -8.1080  -7.3163  -7.3163  -6.8866  -6.8866  -6.0303  -6.0303
    -5.7426  -5.7426  -4.5911  -4.5911  -4.2892  -4.2892  -1.7806  -1.7806
    -1.4379  -1.4379   2.4612   2.4612   4.2846   4.2846

          k = 0.3664 0.5192 0.0000 ( 54026 PWs)   bands (ev):

   -15.9779 -15.9779 -15.9237 -15.9237  -9.0645  -9.0645  -8.5745  -8.5745
    -8.2133  -8.2133  -7.3194  -7.3194  -6.8622  -6.8622  -6.0413  -6.0413
    -5.7510  -5.7510  -4.5721  -4.5721  -4.2939  -4.2939  -1.7845  -1.7845
    -1.4863  -1.4863   2.5217   2.5217   4.3353   4.3354

          k = 0.3580 0.5336 0.0000 ( 54012 PWs)   bands (ev):

   -15.9725 -15.9725 -15.9184 -15.9184  -8.9983  -8.9983  -8.5851  -8.5851
    -8.3071  -8.3071  -7.3195  -7.3195  -6.8410  -6.8410  -6.0525  -6.0525
    -5.7588  -5.7588  -4.5518  -4.5518  -4.3051  -4.3051  -1.7747  -1.7747
    -1.5351  -1.5351   2.5643   2.5643   4.3832   4.3832

          k = 0.3497 0.5480 0.0000 ( 54004 PWs)   bands (ev):

   -15.9688 -15.9688 -15.9140 -15.9140  -8.9377  -8.9377  -8.5996  -8.5996
    -8.3812  -8.3812  -7.3183  -7.3183  -6.8241  -6.8241  -6.0627  -6.0627
    -5.7656  -5.7656  -4.5306  -4.5306  -4.3209  -4.3209  -1.7527  -1.7527
    -1.5837  -1.5837   2.5908   2.5908   4.4356   4.4356

          k = 0.3413 0.5624 0.0000 ( 54050 PWs)   bands (ev):

   -15.9664 -15.9664 -15.9112 -15.9112  -8.8912  -8.8912  -8.6179  -8.6179
    -8.4266  -8.4266  -7.3169  -7.3169  -6.8131  -6.8131  -6.0700  -6.0700
    -5.7707  -5.7707  -4.5115  -4.5115  -4.3375  -4.3375  -1.7202  -1.7202
    -1.6312  -1.6312   2.6044   2.6044   4.4875   4.4875

          k = 0.3330 0.5768 0.0000 ( 54074 PWs)   bands (ev):

   -15.9655 -15.9655 -15.9102 -15.9102  -8.8725  -8.8725  -8.6281  -8.6281
    -8.4411  -8.4411  -7.3162  -7.3162  -6.8091  -6.8091  -6.0728  -6.0728
    -5.7728  -5.7728  -4.5023  -4.5023  -4.3460  -4.3460  -1.6809  -1.6809
    -1.6753  -1.6753   2.6083   2.6083   4.5165   4.5165

          k = 0.3163 0.5479 0.0000 ( 54010 PWs)   bands (ev):

   -15.9709 -15.9709 -15.9130 -15.9130  -8.9261  -8.9261  -8.5982  -8.5982
    -8.3946  -8.3946  -7.3204  -7.3204  -6.8256  -6.8256  -6.0598  -6.0598
    -5.7605  -5.7605  -4.5469  -4.5469  -4.3031  -4.3031  -1.7642  -1.7642
    -1.5760  -1.5760   2.5984   2.5984   4.3555   4.3555

          k = 0.2997 0.5191 0.0000 ( 54002 PWs)   bands (ev):

   -15.9940 -15.9940 -15.9158 -15.9158  -9.0014  -9.0014  -8.5657  -8.5657
    -8.2898  -8.2898  -7.3355  -7.3355  -6.8696  -6.8696  -6.0228  -6.0228
    -5.7154  -5.7154  -4.6425  -4.6425  -4.2096  -4.2096  -1.8355  -1.8355
    -1.4669  -1.4669   2.5803   2.5803   4.0714   4.0714

          k = 0.2830 0.4903 0.0000 ( 54018 PWs)   bands (ev):

   -16.0412 -16.0412 -15.9132 -15.9132  -9.0469  -9.0469  -8.5449  -8.5449
    -8.1741  -8.1741  -7.3638  -7.3638  -6.9266  -6.9266  -5.9684  -5.9684
    -5.6287  -5.6287  -4.7513  -4.7513  -4.0968  -4.0968  -1.8915  -1.8915
    -1.3656  -1.3656   2.5643   2.5643   3.7956   3.7956

          k = 0.2664 0.4614 0.0000 ( 54026 PWs)   bands (ev):

   -16.1114 -16.1114 -15.9065 -15.9065  -9.0523  -9.0523  -8.5321  -8.5321
    -8.0759  -8.0759  -7.4027  -7.4027  -6.9799  -6.9799  -5.9055  -5.9055
    -5.5024  -5.5024  -4.8489  -4.8489  -3.9769  -3.9769  -1.9306  -1.9306
    -1.2877  -1.2877   2.5555   2.5555   3.5573   3.5573

          k = 0.2497 0.4326 0.0000 ( 54052 PWs)   bands (ev):

   -16.2016 -16.2016 -15.8973 -15.8973  -9.0186  -9.0186  -8.5278  -8.5278
    -8.0096  -8.0096  -7.4455  -7.4455  -7.0180  -7.0180  -5.8456  -5.8456
    -5.3479  -5.3479  -4.9064  -4.9064  -3.8568  -3.8568  -1.9520  -1.9520
    -1.2468  -1.2468   2.5565   2.5565   3.3662   3.3663

          k = 0.2331 0.4037 0.0000 ( 54084 PWs)   bands (ev):

   -16.3084 -16.3084 -15.8864 -15.8864  -8.9529  -8.9529  -8.5324  -8.5324
    -7.9790  -7.9790  -7.4848  -7.4848  -7.0357  -7.0357  -5.8056  -5.8056
    -5.1848  -5.1848  -4.8850  -4.8850  -3.7424  -3.7424  -1.9542  -1.9542
    -1.2514  -1.2514   2.5685   2.5685   3.2231   3.2231

          k = 0.2164 0.3749 0.0000 ( 54090 PWs)   bands (ev):

   -16.4282 -16.4282 -15.8742 -15.8742  -8.8701  -8.8701  -8.5425  -8.5425
    -7.9767  -7.9767  -7.5169  -7.5169  -7.0330  -7.0330  -5.7950  -5.7950
    -5.0292  -5.0292  -4.7617  -4.7617  -3.6384  -3.6384  -1.9353  -1.9353
    -1.3031  -1.3031   2.5922   2.5922   3.1194   3.1194

          k = 0.1998 0.3461 0.0000 ( 54074 PWs)   bands (ev):

   -16.5567 -16.5567 -15.8612 -15.8612  -8.7973  -8.7973  -8.5460  -8.5460
    -7.9890  -7.9890  -7.5385  -7.5385  -7.0122  -7.0122  -5.8026  -5.8026
    -4.8660  -4.8660  -4.5702  -4.5702  -3.5491  -3.5491  -1.8925  -1.8925
    -1.3953  -1.3953   2.6281   2.6281   3.0389   3.0389

          k = 0.1831 0.3172 0.0000 ( 54086 PWs)   bands (ev):

   -16.6900 -16.6900 -15.8478 -15.8478  -8.7678  -8.7678  -8.5290  -8.5290
    -8.0064  -8.0064  -7.5370  -7.5370  -6.9749  -6.9749  -5.8087  -5.8087
    -4.6841  -4.6841  -4.3552  -4.3552  -3.4782  -3.4782  -1.8229  -1.8229
    -1.5140  -1.5140   2.6758   2.6758   2.9628   2.9628

          k = 0.1665 0.2884 0.0000 ( 54090 PWs)   bands (ev):

   -16.8240 -16.8240 -15.8342 -15.8342  -8.7805  -8.7805  -8.5099  -8.5099
    -8.0338  -8.0338  -7.4885  -7.4885  -6.9219  -6.9219  -5.7991  -5.7991
    -4.4926  -4.4926  -4.1403  -4.1403  -3.4294  -3.4294  -1.7288  -1.7288
    -1.6348  -1.6348   2.7297   2.7297   2.8780   2.8780

          k = 0.1498 0.2595 0.0000 ( 54086 PWs)   bands (ev):

   -16.9552 -16.9552 -15.8210 -15.8210  -8.8105  -8.8105  -8.5136  -8.5136
    -8.0830  -8.0830  -7.3793  -7.3793  -6.8550  -6.8550  -5.7660  -5.7660
    -4.3082  -4.3082  -3.9383  -3.9383  -3.4055  -3.4055  -1.7585  -1.7585
    -1.5845  -1.5845   2.7012   2.7012   2.7595   2.7595

          k = 0.1332 0.2307 0.0000 ( 54099 PWs)   bands (ev):

   -17.0802 -17.0802 -15.8083 -15.8083  -8.8435  -8.8435  -8.5396  -8.5396
    -8.1530  -8.1530  -7.2261  -7.2261  -6.7772  -6.7772  -5.7041  -5.7041
    -4.1488  -4.1488  -3.7595  -3.7595  -3.4074  -3.4074  -1.8211  -1.8211
    -1.4300  -1.4300   2.4796   2.4796   2.6399   2.6399

          k = 0.1165 0.2019 0.0000 ( 54063 PWs)   bands (ev):

   -17.1965 -17.1965 -15.7965 -15.7965  -8.8738  -8.8738  -8.5779  -8.5779
    -8.2329  -8.2329  -7.0587  -7.0587  -6.6925  -6.6925  -5.6085  -5.6085
    -4.0290  -4.0290  -3.6215  -3.6215  -3.4259  -3.4259  -1.8127  -1.8127
    -1.2562  -1.2562   2.2428   2.2428   2.5151   2.5151

          k = 0.0999 0.1730 0.0000 ( 54047 PWs)   bands (ev):

   -17.3015 -17.3015 -15.7859 -15.7859  -8.8997  -8.8997  -8.6207  -8.6207
    -8.3123  -8.3123  -6.9019  -6.9019  -6.6065  -6.6065  -5.4763  -5.4763
    -3.9588  -3.9588  -3.5662  -3.5662  -3.4172  -3.4172  -1.7151  -1.7151
    -1.0773  -1.0773   2.0050   2.0050   2.3909   2.3909

          k = 0.0832 0.1442 0.0000 ( 54057 PWs)   bands (ev):

   -17.3935 -17.3935 -15.7767 -15.7767  -8.9211  -8.9211  -8.6632  -8.6632
    -8.3835  -8.3835  -6.7701  -6.7701  -6.5244  -6.5244  -5.3110  -5.3110
    -3.9460  -3.9460  -3.5846  -3.5846  -3.3689  -3.3689  -1.5333  -1.5333
    -0.9069  -0.9069   1.7677   1.7677   2.2728   2.2728

          k = 0.0666 0.1154 0.0000 ( 54077 PWs)   bands (ev):

   -17.4707 -17.4707 -15.7690 -15.7690  -8.9387  -8.9387  -8.7022  -8.7022
    -8.4417  -8.4417  -6.6682  -6.6682  -6.4508  -6.4508  -5.1256  -5.1256
    -3.9864  -3.9864  -3.6045  -3.6045  -3.3277  -3.3277  -1.2915  -1.2915
    -0.7573  -0.7573   1.5374   1.5374   2.1624   2.1624

          k = 0.0499 0.0865 0.0000 ( 54125 PWs)   bands (ev):

   -17.5321 -17.5321 -15.7629 -15.7629  -8.9529  -8.9529  -8.7356  -8.7356
    -8.4849  -8.4849  -6.5950  -6.5950  -6.3883  -6.3883  -4.9406  -4.9406
    -4.0555  -4.0555  -3.6147  -3.6147  -3.2984  -3.2984  -1.0228  -1.0228
    -0.6373  -0.6373   1.3274   1.3274   2.0536   2.0536

          k = 0.0333 0.0577 0.0000 ( 54153 PWs)   bands (ev):

   -17.5765 -17.5765 -15.7586 -15.7586  -8.9637  -8.9637  -8.7614  -8.7614
    -8.5137  -8.5137  -6.5469  -6.5469  -6.3399  -6.3399  -4.7798  -4.7798
    -4.1262  -4.1262  -3.6219  -3.6219  -3.2768  -3.2768  -0.7672  -0.7672
    -0.5510  -0.5510   1.1568   1.1568   1.9300   1.9300

          k = 0.0166 0.0288 0.0000 ( 54215 PWs)   bands (ev):

   -17.6035 -17.6035 -15.7560 -15.7560  -8.9707  -8.9707  -8.7777  -8.7777
    -8.5296  -8.5296  -6.5201  -6.5201  -6.3088  -6.3088  -4.6670  -4.6670
    -4.1797  -4.1797  -3.6277  -3.6277  -3.2624  -3.2624  -0.5796  -0.5796
    -0.4946  -0.4946   1.0451   1.0451   1.8025   1.8025

          k = 0.0000 0.0000 0.0000 ( 54221 PWs)   bands (ev):

   -17.6125 -17.6125 -15.7551 -15.7551  -8.9731  -8.9731  -8.7832  -8.7832
    -8.5347  -8.5347  -6.5115  -6.5115  -6.2981  -6.2981  -4.6253  -4.6253
    -4.2006  -4.2006  -3.6301  -3.6301  -3.2571  -3.2571  -0.5207  -0.5207
    -0.4627  -0.4627   1.0063   1.0063   1.7453   1.7453

     Writing all to output data dir ./tmp/ptse2.save/

     init_run     :      6.08s CPU      7.39s WALL (       1 calls)
     electrons    :    611.83s CPU    614.00s WALL (       1 calls)

     Called by init_run:
     wfcinit      :      0.00s CPU      0.00s WALL (       1 calls)
     wfcinit:atom :      0.21s CPU      0.21s WALL (      61 calls)
     wfcinit:wfcr :     23.17s CPU     23.26s WALL (      61 calls)
     potinit      :      0.34s CPU      0.39s WALL (       1 calls)
     hinit0       :      3.66s CPU      3.69s WALL (       1 calls)

     Called by electrons:
     c_bands      :    611.83s CPU    613.99s WALL (       1 calls)
     v_of_rho     :      0.04s CPU      0.05s WALL (       1 calls)
     v_h          :      0.02s CPU      0.02s WALL (       1 calls)
     v_xc         :      0.02s CPU      0.03s WALL (       1 calls)
     newd         :      1.64s CPU      2.83s WALL (       1 calls)

     Called by c_bands:
     init_us_2    :      0.13s CPU      0.14s WALL (      61 calls)
     init_us_2:cp :      0.13s CPU      0.14s WALL (      61 calls)
     cegterg      :    585.61s CPU    587.19s WALL (     163 calls)

     Called by sum_band:

     Called by *egterg:
     cdiaghg      :      2.36s CPU      2.36s WALL (    2794 calls)
     cegterg:over :     17.66s CPU     17.69s WALL (    2733 calls)
     cegterg:upda :     10.99s CPU     11.02s WALL (    2733 calls)
     cegterg:last :     29.76s CPU     29.78s WALL (    1501 calls)
     h_psi        :    529.45s CPU    530.97s WALL (    2957 calls)
     s_psi        :      6.45s CPU      6.48s WALL (    2957 calls)
     g_psi        :      1.99s CPU      2.00s WALL (    2733 calls)

     Called by h_psi:
     h_psi:calbec :     10.81s CPU     10.84s WALL (    2957 calls)
     vloc_psi     :    509.02s CPU    510.46s WALL (    2957 calls)
     add_vuspsi   :      6.47s CPU      6.49s WALL (    2957 calls)

     General routines
     calbec       :     10.80s CPU     10.83s WALL (    2957 calls)
     fft          :      0.41s CPU      0.42s WALL (      12 calls)
     ffts         :      0.17s CPU      0.17s WALL (       4 calls)
     fftw         :    241.10s CPU    241.57s WALL (  195268 calls)
     interpolate  :      0.22s CPU      0.22s WALL (       4 calls)
     davcio       :      0.07s CPU      0.61s WALL (     122 calls)

     Parallel routines

     PWSCF        :  10m20.51s CPU  10m28.76s WALL


   This run was terminated on:  14:19:48  19Jun2025            

=------------------------------------------------------------------------------=
   JOB DONE.
=------------------------------------------------------------------------------=
