
     Program PROJWFC v.7.2 starts on 19Jun2025 at 13:55:19 

     This program is part of the open-source Quantum ESPRESSO suite
     for quantum simulation of materials; please cite
         "P. Giannozzi et al., J. Phys.:Condens. Matter 21 395502 (2009);
         "P. Giannozzi et al., J. Phys.:Condens. Matter 29 465901 (2017);
         "P. Giannozzi et al., J. Chem. Phys. 152 154105 (2020);
          URL http://www.quantum-espresso.org", 
     in publications or presentations arising from this work. More details at
     http://www.quantum-espresso.org/quote

     Parallel version (MPI & OpenMP), running on      10 processor cores
     Number of MPI processes:                10
     Threads/MPI process:                     1

     MPI processes distributed on     1 nodes
     R & G space division:  proc/nbgrp/npool/nimage =      10
     67805 MiB available memory on the printing compute node when the environment starts


     Reading xml data from directory:

     ./tmp/ptse2.save/

     IMPORTANT: XC functional enforced from input :
     Exchange-correlation= PZ
                           (   1   1   0   0   0   0   0)
     Any further DFT definition will be discarded
     Please, verify this is what you really want


     Parallelization info
     --------------------
     sticks:   dense  smooth     PW     G-vecs:    dense   smooth      PW
     Min         409     163     47               170929    43257    6747
     Max         410     164     48               170954    43296    6776
     Sum        4093    1639    475              1709389   432857   67599

     Using Slab Decomposition


     negative rho (up, down):  6.988E-06 0.000E+00

     Gaussian broadening (read from input): ngauss,degauss=   0    0.001000


     Calling projwave .... 
     Subspace diagonalization in iterative solution of the eigenvalue problem:
     one sub-group per band group will be used
     ELPA distributed-memory algorithm (size of sub-group:  3*  3 procs)

     linear algebra parallelized on   9 procs

  Problem Sizes 
  natomwfc =           17
  nx       =            6
  nbnd     =           15
  nkstot   =          110
  npwx     =         5522
  nkb      =           34


     Atomic states used for projection
     (read from pseudopotential files):

     state #   1: atom   1 (Pt ), wfc  1 (l=0 m= 1)
     state #   2: atom   1 (Pt ), wfc  2 (l=1 m= 1)
     state #   3: atom   1 (Pt ), wfc  2 (l=1 m= 2)
     state #   4: atom   1 (Pt ), wfc  2 (l=1 m= 3)
     state #   5: atom   1 (Pt ), wfc  3 (l=2 m= 1)
     state #   6: atom   1 (Pt ), wfc  3 (l=2 m= 2)
     state #   7: atom   1 (Pt ), wfc  3 (l=2 m= 3)
     state #   8: atom   1 (Pt ), wfc  3 (l=2 m= 4)
     state #   9: atom   1 (Pt ), wfc  3 (l=2 m= 5)
     state #  10: atom   2 (Se ), wfc  1 (l=0 m= 1)
     state #  11: atom   2 (Se ), wfc  2 (l=1 m= 1)
     state #  12: atom   2 (Se ), wfc  2 (l=1 m= 2)
     state #  13: atom   2 (Se ), wfc  2 (l=1 m= 3)
     state #  14: atom   3 (Se ), wfc  1 (l=0 m= 1)
     state #  15: atom   3 (Se ), wfc  2 (l=1 m= 1)
     state #  16: atom   3 (Se ), wfc  2 (l=1 m= 2)
     state #  17: atom   3 (Se ), wfc  2 (l=1 m= 3)

 k =   0.0250000000  0.0433012702 -0.0621166667
==== e(   1) =   -17.58227 eV ==== 
     psi = 0.318*[#  10]+0.318*[#  14]+0.309*[#   1]+0.015*[#  11]+0.015*[#  15]
          +0.009*[#   3]+0.009*[#   4]+0.005*[#   5]
    |psi|^2 = 0.999
==== e(   2) =   -15.74987 eV ==== 
     psi = 0.373*[#  10]+0.373*[#  14]+0.249*[#   2]
    |psi|^2 = 0.999
==== e(   3) =    -8.67506 eV ==== 
     psi = 0.258*[#   8]+0.258*[#   9]+0.089*[#   6]+0.089*[#   7]+0.073*[#  12]
          +0.073*[#  13]+0.073*[#  16]+0.073*[#  17]+0.003*[#   2]+0.002*[#  11]
          +0.002*[#  15]
    |psi|^2 = 0.995
==== e(   4) =    -8.65936 eV ==== 
     psi = 0.257*[#   8]+0.257*[#   9]+0.094*[#   6]+0.094*[#   7]+0.073*[#  12]
          +0.073*[#  13]+0.073*[#  16]+0.073*[#  17]
    |psi|^2 = 0.995
==== e(   5) =    -8.57321 eV ==== 
     psi = 0.416*[#   5]+0.245*[#  11]+0.245*[#  15]+0.039*[#  10]+0.039*[#  14]
          +0.009*[#   1]
    |psi|^2 = 0.995
==== e(   6) =    -6.38419 eV ==== 
     psi = 0.361*[#   6]+0.361*[#   7]+0.131*[#   8]+0.131*[#   9]+0.002*[#  12]
          +0.002*[#  13]+0.002*[#  16]+0.002*[#  17]
    |psi|^2 = 0.994
==== e(   7) =    -6.37431 eV ==== 
     psi = 0.356*[#   6]+0.356*[#   7]+0.136*[#   8]+0.136*[#   9]+0.002*[#  12]
          +0.002*[#  13]+0.002*[#  16]+0.002*[#  17]
    |psi|^2 = 0.994
==== e(   8) =    -4.77792 eV ==== 
     psi = 0.511*[#   5]+0.132*[#  11]+0.132*[#  15]+0.092*[#   1]+0.034*[#  10]
          +0.034*[#  14]+0.013*[#  12]+0.013*[#  13]+0.013*[#  16]+0.013*[#  17]
          
    |psi|^2 = 0.993
==== e(   9) =    -4.02659 eV ==== 
     psi = 0.448*[#  11]+0.448*[#  15]+0.066*[#   2]+0.014*[#  10]+0.014*[#  14]
          +0.002*[#   8]+0.002*[#   9]
    |psi|^2 = 0.997
==== e(  10) =    -3.48927 eV ==== 
     psi = 0.220*[#  12]+0.220*[#  13]+0.220*[#  16]+0.220*[#  17]+0.037*[#   5]
          +0.019*[#  11]+0.019*[#  15]+0.016*[#   3]+0.016*[#   4]+0.003*[#   8]
          +0.003*[#   9]+0.002*[#   6]+0.002*[#   7]
    |psi|^2 = 0.996
==== e(  11) =    -3.47341 eV ==== 
     psi = 0.236*[#  12]+0.236*[#  13]+0.236*[#  16]+0.236*[#  17]+0.021*[#   3]
          +0.021*[#   4]+0.003*[#   8]+0.003*[#   9]+0.002*[#   6]+0.002*[#   7]
          
    |psi|^2 = 0.997
==== e(  12) =    -0.65552 eV ==== 
     psi = 0.167*[#  12]+0.167*[#  13]+0.167*[#  16]+0.167*[#  17]+0.099*[#   8]
          +0.099*[#   9]+0.042*[#   6]+0.042*[#   7]+0.019*[#   2]+0.006*[#  10]
          +0.006*[#  14]
    |psi|^2 = 0.986
==== e(  13) =    -0.53169 eV ==== 
     psi = 0.175*[#  12]+0.175*[#  13]+0.175*[#  16]+0.175*[#  17]+0.100*[#   8]
          +0.100*[#   9]+0.044*[#   6]+0.044*[#   7]+0.001*[#   3]+0.001*[#   4]
          
    |psi|^2 = 0.992
==== e(  14) =     1.09532 eV ==== 
     psi = 0.345*[#   1]+0.068*[#  10]+0.068*[#  14]+0.052*[#  11]+0.052*[#  15]
          +0.014*[#   3]+0.014*[#   4]+0.005*[#   5]+0.002*[#  12]+0.002*[#  13]
          +0.002*[#  16]+0.002*[#  17]
    |psi|^2 = 0.629
==== e(  15) =     1.92852 eV ==== 
     psi = 0.022*[#   2]+0.006*[#  10]+0.006*[#  14]+0.003*[#  11]+0.003*[#  15]
          +0.002*[#  12]+0.002*[#  13]+0.002*[#  16]+0.002*[#  17]
    |psi|^2 = 0.049

 k =   0.0250000000  0.1010362971 -0.0621166667
==== e(   1) =   -17.51533 eV ==== 
     psi = 0.311*[#  10]+0.311*[#  14]+0.273*[#   1]+0.033*[#   3]+0.033*[#   4]
          +0.014*[#  11]+0.014*[#  15]+0.005*[#   5]+0.001*[#  12]+0.001*[#  13]
          +0.001*[#  16]+0.001*[#  17]
    |psi|^2 = 0.999
==== e(   2) =   -15.75622 eV ==== 
     psi = 0.375*[#  10]+0.375*[#  14]+0.236*[#   2]+0.004*[#   6]+0.004*[#   7]
          +0.002*[#   8]+0.002*[#   9]
    |psi|^2 = 0.999
==== e(   3) =    -8.68261 eV ==== 
     psi = 0.256*[#   8]+0.256*[#   9]+0.077*[#   6]+0.077*[#   7]+0.073*[#  12]
          +0.073*[#  13]+0.073*[#  16]+0.073*[#  17]+0.013*[#   2]+0.010*[#  11]
          +0.010*[#  15]+0.001*[#   5]
    |psi|^2 = 0.995
==== e(   4) =    -8.61853 eV ==== 
     psi = 0.248*[#   8]+0.248*[#   9]+0.101*[#   6]+0.101*[#   7]+0.073*[#  12]
          +0.073*[#  13]+0.073*[#  16]+0.073*[#  17]+0.001*[#   5]
    |psi|^2 = 0.995
==== e(   5) =    -8.50710 eV ==== 
     psi = 0.413*[#   5]+0.244*[#  11]+0.244*[#  15]+0.038*[#  10]+0.038*[#  14]
          +0.011*[#   1]+0.001*[#   6]+0.001*[#   7]
    |psi|^2 = 0.995
==== e(   6) =    -6.47756 eV ==== 
     psi = 0.355*[#   6]+0.355*[#   7]+0.115*[#   8]+0.115*[#   9]+0.011*[#  12]
          +0.011*[#  13]+0.011*[#  16]+0.011*[#  17]+0.003*[#   5]+0.001*[#   1]
          +0.001*[#  10]+0.001*[#  14]
    |psi|^2 = 0.994
==== e(   7) =    -6.42674 eV ==== 
     psi = 0.338*[#   6]+0.338*[#   7]+0.139*[#   8]+0.139*[#   9]+0.010*[#  12]
          +0.010*[#  13]+0.010*[#  16]+0.010*[#  17]+0.001*[#   5]
    |psi|^2 = 0.995
==== e(   8) =    -5.00209 eV ==== 
     psi = 0.426*[#   5]+0.110*[#   1]+0.096*[#  11]+0.096*[#  15]+0.041*[#  12]
          +0.041*[#  13]+0.041*[#  16]+0.041*[#  17]+0.037*[#  10]+0.037*[#  14]
          +0.008*[#   6]+0.008*[#   7]+0.005*[#   8]+0.005*[#   9]+0.001*[#   3]
          +0.001*[#   4]
    |psi|^2 = 0.995
==== e(   9) =    -3.90799 eV ==== 
     psi = 0.444*[#  11]+0.444*[#  15]+0.055*[#   2]+0.011*[#  10]+0.011*[#  14]
          +0.006*[#   8]+0.006*[#   9]+0.004*[#  12]+0.004*[#  13]+0.004*[#  16]
          +0.004*[#  17]
    |psi|^2 = 0.997
==== e(  10) =    -3.53160 eV ==== 
     psi = 0.172*[#  12]+0.172*[#  13]+0.172*[#  16]+0.172*[#  17]+0.124*[#   5]
          +0.065*[#  11]+0.065*[#  15]+0.010*[#   8]+0.010*[#   9]+0.009*[#   3]
          +0.009*[#   4]+0.006*[#   6]+0.006*[#   7]+0.002*[#   1]
    |psi|^2 = 0.994
==== e(  11) =    -3.47732 eV ==== 
     psi = 0.228*[#  12]+0.228*[#  13]+0.228*[#  16]+0.228*[#  17]+0.022*[#   3]
          +0.022*[#   4]+0.013*[#   8]+0.013*[#   9]+0.007*[#   6]+0.007*[#   7]
          
    |psi|^2 = 0.997
==== e(  12) =    -1.07001 eV ==== 
     psi = 0.151*[#  12]+0.151*[#  13]+0.151*[#  16]+0.151*[#  17]+0.096*[#   8]
          +0.096*[#   9]+0.051*[#   2]+0.044*[#   6]+0.044*[#   7]+0.019*[#  10]
          +0.019*[#  14]+0.003*[#   3]+0.003*[#   4]+0.001*[#  11]+0.001*[#  15]
          
    |psi|^2 = 0.979
==== e(  13) =    -0.63971 eV ==== 
     psi = 0.174*[#  12]+0.174*[#  13]+0.174*[#  16]+0.174*[#  17]+0.094*[#   8]
          +0.094*[#   9]+0.049*[#   6]+0.049*[#   7]+0.005*[#   3]+0.005*[#   4]
          
    |psi|^2 = 0.991
==== e(  14) =     1.35381 eV ==== 
     psi = 0.249*[#   1]+0.064*[#  10]+0.064*[#  14]+0.045*[#   3]+0.045*[#   4]
          +0.042*[#  11]+0.042*[#  15]+0.007*[#  12]+0.007*[#  13]+0.007*[#  16]
          +0.007*[#  17]+0.002*[#   5]
    |psi|^2 = 0.584
==== e(  15) =     2.08628 eV ==== 
     psi = 0.011*[#   2]
    |psi|^2 = 0.016

 k =   0.0250000000  0.1587713240 -0.0621166667
==== e(   1) =   -17.39795 eV ==== 
     psi = 0.303*[#  10]+0.303*[#  14]+0.226*[#   1]+0.064*[#   3]+0.064*[#   4]
          +0.012*[#  11]+0.012*[#  15]+0.004*[#   5]+0.002*[#  12]+0.002*[#  13]
          +0.002*[#  16]+0.002*[#  17]
    |psi|^2 = 0.999
==== e(   2) =   -15.76752 eV ==== 
     psi = 0.379*[#  10]+0.379*[#  14]+0.214*[#   2]+0.008*[#   6]+0.008*[#   7]
          +0.005*[#   8]+0.005*[#   9]
    |psi|^2 = 0.999
==== e(   3) =    -8.68779 eV ==== 
     psi = 0.251*[#   8]+0.251*[#   9]+0.073*[#  12]+0.073*[#  13]+0.073*[#  16]
          +0.073*[#  17]+0.058*[#   6]+0.058*[#   7]+0.026*[#   2]+0.023*[#  11]
          +0.023*[#  15]+0.004*[#   5]+0.001*[#  10]+0.001*[#  14]+0.001*[#   3]
          +0.001*[#   4]
    |psi|^2 = 0.994
==== e(   4) =    -8.54973 eV ==== 
     psi = 0.234*[#   8]+0.234*[#   9]+0.114*[#   6]+0.114*[#   7]+0.074*[#  12]
          +0.074*[#  13]+0.074*[#  16]+0.074*[#  17]
    |psi|^2 = 0.995
==== e(   5) =    -8.39341 eV ==== 
     psi = 0.405*[#   5]+0.241*[#  11]+0.241*[#  15]+0.039*[#  10]+0.039*[#  14]
          +0.015*[#   1]+0.004*[#   6]+0.004*[#   7]+0.002*[#  12]+0.002*[#  13]
          +0.002*[#  16]+0.002*[#  17]
    |psi|^2 = 0.995
==== e(   6) =    -6.67513 eV ==== 
     psi = 0.324*[#   6]+0.324*[#   7]+0.085*[#   8]+0.085*[#   9]+0.033*[#  12]
          +0.033*[#  13]+0.033*[#  16]+0.033*[#  17]+0.022*[#   5]+0.011*[#   1]
          +0.004*[#  10]+0.004*[#  14]
    |psi|^2 = 0.994
==== e(   7) =    -6.49939 eV ==== 
     psi = 0.310*[#   6]+0.310*[#   7]+0.145*[#   8]+0.145*[#   9]+0.020*[#  12]
          +0.020*[#  13]+0.020*[#  16]+0.020*[#  17]+0.002*[#   5]+0.001*[#   3]
          +0.001*[#   4]
    |psi|^2 = 0.995
==== e(   8) =    -5.29502 eV ==== 
     psi = 0.329*[#   5]+0.123*[#   1]+0.062*[#  11]+0.062*[#  15]+0.055*[#  12]
          +0.055*[#  13]+0.055*[#  16]+0.055*[#  17]+0.040*[#   6]+0.040*[#   7]
          +0.038*[#  10]+0.038*[#  14]+0.022*[#   8]+0.022*[#   9]
    |psi|^2 = 0.996
==== e(   9) =    -3.73984 eV ==== 
     psi = 0.419*[#  11]+0.419*[#  15]+0.036*[#   2]+0.016*[#  12]+0.016*[#  13]
          +0.016*[#  16]+0.016*[#  17]+0.014*[#   8]+0.014*[#   9]+0.013*[#   5]
          +0.007*[#  10]+0.007*[#  14]
    |psi|^2 = 0.996
==== e(  10) =    -3.59988 eV ==== 
     psi = 0.199*[#   5]+0.126*[#  11]+0.126*[#  15]+0.121*[#  12]+0.121*[#  13]
          +0.121*[#  16]+0.121*[#  17]+0.015*[#   8]+0.015*[#   9]+0.007*[#   6]
          +0.007*[#   7]+0.005*[#   3]+0.005*[#   4]+0.003*[#   1]
    |psi|^2 = 0.993
==== e(  11) =    -3.51485 eV ==== 
     psi = 0.214*[#  12]+0.214*[#  13]+0.214*[#  16]+0.214*[#  17]+0.032*[#   8]
          +0.032*[#   9]+0.025*[#   3]+0.025*[#   4]+0.012*[#   6]+0.012*[#   7]
          +0.001*[#  11]+0.001*[#  15]
    |psi|^2 = 0.997
==== e(  12) =    -1.58436 eV ==== 
     psi = 0.132*[#  12]+0.132*[#  13]+0.132*[#  16]+0.132*[#  17]+0.096*[#   8]
          +0.096*[#   9]+0.073*[#   2]+0.051*[#   6]+0.051*[#   7]+0.032*[#  10]
          +0.032*[#  14]+0.006*[#   3]+0.006*[#   4]+0.004*[#  11]+0.004*[#  15]
          +0.001*[#   5]
    |psi|^2 = 0.980
==== e(  13) =    -0.77668 eV ==== 
     psi = 0.173*[#  12]+0.173*[#  13]+0.173*[#  16]+0.173*[#  17]+0.082*[#   8]
          +0.082*[#   9]+0.058*[#   6]+0.058*[#   7]+0.008*[#   3]+0.008*[#   4]
          
    |psi|^2 = 0.990
==== e(  14) =     1.72214 eV ==== 
     psi = 0.146*[#   1]+0.068*[#   3]+0.068*[#   4]+0.056*[#  10]+0.056*[#  14]
          +0.029*[#  11]+0.029*[#  15]+0.011*[#  12]+0.011*[#  13]+0.011*[#  16]
          +0.011*[#  17]+0.002*[#   2]
    |psi|^2 = 0.500
==== e(  15) =     2.25670 eV ==== 
     psi = 0.055*[#   2]+0.005*[#  10]+0.005*[#  14]+0.003*[#  11]+0.003*[#  15]
          
    |psi|^2 = 0.075

 k =   0.0250000000  0.2165063509 -0.0621166667
==== e(   1) =   -17.23585 eV ==== 
     psi = 0.299*[#  10]+0.299*[#  14]+0.180*[#   1]+0.092*[#   3]+0.092*[#   4]
          +0.011*[#  11]+0.011*[#  15]+0.004*[#   5]+0.003*[#  12]+0.003*[#  13]
          +0.003*[#  16]+0.003*[#  17]
    |psi|^2 = 0.999
==== e(   2) =   -15.78344 eV ==== 
     psi = 0.384*[#  10]+0.384*[#  14]+0.184*[#   2]+0.014*[#   6]+0.014*[#   7]
          +0.009*[#   8]+0.009*[#   9]
    |psi|^2 = 0.999
==== e(   3) =    -8.68181 eV ==== 
     psi = 0.247*[#   8]+0.247*[#   9]+0.073*[#  12]+0.073*[#  13]+0.073*[#  16]
          +0.073*[#  17]+0.040*[#   2]+0.039*[#  11]+0.039*[#  15]+0.035*[#   6]
          +0.035*[#   7]+0.007*[#   5]+0.003*[#  10]+0.003*[#  14]+0.002*[#   3]
          +0.002*[#   4]+0.002*[#   1]
    |psi|^2 = 0.993
==== e(   4) =    -8.46249 eV ==== 
     psi = 0.211*[#   8]+0.211*[#   9]+0.136*[#   6]+0.136*[#   7]+0.074*[#  12]
          +0.074*[#  13]+0.074*[#  16]+0.074*[#  17]+0.002*[#   3]+0.002*[#   4]
          
    |psi|^2 = 0.995
==== e(   5) =    -8.24679 eV ==== 
     psi = 0.376*[#   5]+0.233*[#  11]+0.233*[#  15]+0.041*[#  10]+0.041*[#  14]
          +0.023*[#   1]+0.011*[#   6]+0.011*[#   7]+0.005*[#  12]+0.005*[#  13]
          +0.005*[#  16]+0.005*[#  17]+0.001*[#   2]+0.001*[#   8]+0.001*[#   9]
          
    |psi|^2 = 0.995
==== e(   6) =    -6.99010 eV ==== 
     psi = 0.261*[#   6]+0.261*[#   7]+0.078*[#   5]+0.063*[#  12]+0.063*[#  13]
          +0.063*[#  16]+0.063*[#  17]+0.045*[#   8]+0.045*[#   9]+0.030*[#   1]
          +0.008*[#  10]+0.008*[#  14]+0.002*[#  11]+0.002*[#  15]
    |psi|^2 = 0.995
==== e(   7) =    -6.56608 eV ==== 
     psi = 0.274*[#   6]+0.274*[#   7]+0.158*[#   8]+0.158*[#   9]+0.030*[#  12]
          +0.030*[#  13]+0.030*[#  16]+0.030*[#  17]+0.003*[#   3]+0.003*[#   4]
          +0.003*[#   5]+0.001*[#   1]
    |psi|^2 = 0.996
==== e(   8) =    -5.53930 eV ==== 
     psi = 0.239*[#   5]+0.119*[#   1]+0.099*[#   6]+0.099*[#   7]+0.050*[#   8]
          +0.050*[#   9]+0.047*[#  12]+0.047*[#  13]+0.047*[#  16]+0.047*[#  17]
          +0.042*[#  11]+0.042*[#  15]+0.034*[#  10]+0.034*[#  14]+0.001*[#   2]
          
    |psi|^2 = 0.995
==== e(   9) =    -3.74143 eV ==== 
     psi = 0.269*[#   5]+0.135*[#  11]+0.135*[#  15]+0.085*[#  12]+0.085*[#  13]
          +0.085*[#  16]+0.085*[#  17]+0.041*[#   8]+0.041*[#   9]+0.006*[#   6]
          +0.006*[#   7]+0.006*[#   2]+0.004*[#   3]+0.004*[#   4]+0.003*[#   1]
          +0.002*[#  10]+0.002*[#  14]
    |psi|^2 = 0.994
==== e(  10) =    -3.62451 eV ==== 
     psi = 0.182*[#  12]+0.182*[#  13]+0.182*[#  16]+0.182*[#  17]+0.050*[#  11]
          +0.050*[#  15]+0.046*[#   8]+0.046*[#   9]+0.025*[#   3]+0.025*[#   4]
          +0.013*[#   6]+0.013*[#   7]
    |psi|^2 = 0.997
==== e(  11) =    -3.58755 eV ==== 
     psi = 0.360*[#  11]+0.360*[#  15]+0.056*[#  12]+0.056*[#  13]+0.056*[#  16]
          +0.056*[#  17]+0.012*[#   8]+0.012*[#   9]+0.010*[#   2]+0.004*[#   3]
          +0.004*[#   4]+0.003*[#   6]+0.003*[#   7]+0.002*[#   5]+0.002*[#  10]
          +0.002*[#  14]
    |psi|^2 = 0.995
==== e(  12) =    -2.00824 eV ==== 
     psi = 0.103*[#  12]+0.103*[#  13]+0.103*[#  16]+0.103*[#  17]+0.095*[#   8]
          +0.095*[#   9]+0.082*[#   2]+0.063*[#   6]+0.063*[#   7]+0.042*[#  10]
          +0.042*[#  14]+0.032*[#  11]+0.032*[#  15]+0.008*[#   3]+0.008*[#   4]
          +0.007*[#   5]
    |psi|^2 = 0.983
==== e(  13) =    -0.88527 eV ==== 
     psi = 0.174*[#  12]+0.174*[#  13]+0.174*[#  16]+0.174*[#  17]+0.071*[#   6]
          +0.071*[#   7]+0.066*[#   8]+0.066*[#   9]+0.008*[#   3]+0.008*[#   4]
          
    |psi|^2 = 0.989
==== e(  14) =     2.11136 eV ==== 
     psi = 0.089*[#   3]+0.089*[#   4]+0.050*[#   1]+0.047*[#  10]+0.047*[#  14]
          +0.017*[#  11]+0.017*[#  15]+0.012*[#   2]+0.009*[#  12]+0.009*[#  13]
          +0.009*[#  16]+0.009*[#  17]
    |psi|^2 = 0.407
==== e(  15) =     2.41810 eV ==== 
     psi = 0.172*[#   2]+0.087*[#   1]+0.018*[#  10]+0.018*[#  14]+0.013*[#   3]
          +0.013*[#   4]+0.012*[#  11]+0.012*[#  15]+0.008*[#  12]+0.008*[#  13]
          +0.008*[#  16]+0.008*[#  17]
    |psi|^2 = 0.379

 k =   0.0250000000  0.2742413779 -0.0621166667
==== e(   1) =   -17.03796 eV ==== 
     psi = 0.300*[#  10]+0.300*[#  14]+0.140*[#   1]+0.111*[#   3]+0.111*[#   4]
          +0.009*[#  11]+0.009*[#  15]+0.003*[#  12]+0.003*[#  13]+0.003*[#  16]
          +0.003*[#  17]+0.003*[#   5]+0.001*[#   8]+0.001*[#   9]
    |psi|^2 = 0.999
==== e(   2) =   -15.80334 eV ==== 
     psi = 0.390*[#  10]+0.390*[#  14]+0.150*[#   2]+0.020*[#   6]+0.020*[#   7]
          +0.013*[#   8]+0.013*[#   9]+0.002*[#   3]+0.002*[#   4]
    |psi|^2 = 0.999
==== e(   3) =    -8.66985 eV ==== 
     psi = 0.239*[#   8]+0.239*[#   9]+0.074*[#  12]+0.074*[#  13]+0.074*[#  16]
          +0.074*[#  17]+0.057*[#  11]+0.057*[#  15]+0.047*[#   2]+0.013*[#   5]
          +0.009*[#   6]+0.009*[#   7]+0.008*[#   1]+0.006*[#  10]+0.006*[#  14]
          +0.004*[#   3]+0.004*[#   4]
    |psi|^2 = 0.993
==== e(   4) =    -8.37206 eV ==== 
     psi = 0.178*[#   8]+0.178*[#   9]+0.168*[#   6]+0.168*[#   7]+0.075*[#  12]
          +0.075*[#  13]+0.075*[#  16]+0.075*[#  17]+0.002*[#   3]+0.002*[#   4]
          
    |psi|^2 = 0.996
==== e(   5) =    -8.11439 eV ==== 
     psi = 0.266*[#   5]+0.198*[#  11]+0.198*[#  15]+0.046*[#  10]+0.046*[#  14]
          +0.043*[#   6]+0.043*[#   7]+0.043*[#   1]+0.024*[#  12]+0.024*[#  13]
          +0.024*[#  16]+0.024*[#  17]+0.006*[#   2]+0.005*[#   8]+0.005*[#   9]
          +0.001*[#   3]+0.001*[#   4]
    |psi|^2 = 0.995
==== e(   6) =    -7.33311 eV ==== 
     psi = 0.215*[#   5]+0.175*[#   6]+0.175*[#   7]+0.076*[#  12]+0.076*[#  13]
          +0.076*[#  16]+0.076*[#  17]+0.039*[#   1]+0.025*[#  11]+0.025*[#  15]
          +0.012*[#   8]+0.012*[#   9]+0.006*[#  10]+0.006*[#  14]+0.002*[#   2]
          
    |psi|^2 = 0.997
==== e(   7) =    -6.59922 eV ==== 
     psi = 0.229*[#   6]+0.229*[#   7]+0.179*[#   8]+0.179*[#   9]+0.041*[#  12]
          +0.041*[#  13]+0.041*[#  16]+0.041*[#  17]+0.005*[#   3]+0.005*[#   4]
          +0.004*[#   5]+0.001*[#   1]
    |psi|^2 = 0.996
==== e(   8) =    -5.69067 eV ==== 
     psi = 0.162*[#   5]+0.157*[#   6]+0.157*[#   7]+0.109*[#   1]+0.073*[#   8]
          +0.073*[#   9]+0.035*[#  11]+0.035*[#  15]+0.034*[#  12]+0.034*[#  13]
          +0.034*[#  16]+0.034*[#  17]+0.028*[#  10]+0.028*[#  14]+0.003*[#   2]
          
    |psi|^2 = 0.994
==== e(   9) =    -3.99283 eV ==== 
     psi = 0.262*[#   5]+0.126*[#  11]+0.126*[#  15]+0.079*[#  12]+0.079*[#  13]
          +0.079*[#  16]+0.079*[#  17]+0.061*[#   8]+0.061*[#   9]+0.009*[#   2]
          +0.008*[#   3]+0.008*[#   4]+0.006*[#  10]+0.006*[#  14]+0.005*[#   1]
          
    |psi|^2 = 0.993
==== e(  10) =    -3.81602 eV ==== 
     psi = 0.174*[#  12]+0.174*[#  13]+0.174*[#  16]+0.174*[#  17]+0.073*[#   8]
          +0.073*[#   9]+0.029*[#   3]+0.029*[#   4]+0.023*[#  11]+0.023*[#  15]
          +0.020*[#   5]+0.014*[#   6]+0.014*[#   7]
    |psi|^2 = 0.997
==== e(  11) =    -3.61831 eV ==== 
     psi = 0.321*[#  11]+0.321*[#  15]+0.068*[#  12]+0.068*[#  13]+0.068*[#  16]
          +0.068*[#  17]+0.027*[#   5]+0.015*[#   6]+0.015*[#   7]+0.009*[#   8]
          +0.009*[#   9]+0.003*[#   3]+0.003*[#   4]
    |psi|^2 = 0.994
==== e(  12) =    -2.13784 eV ==== 
     psi = 0.124*[#  11]+0.124*[#  15]+0.089*[#   8]+0.089*[#   9]+0.071*[#   2]
          +0.068*[#   6]+0.068*[#   7]+0.059*[#  12]+0.059*[#  13]+0.059*[#  16]
          +0.059*[#  17]+0.043*[#  10]+0.043*[#  14]+0.017*[#   5]+0.008*[#   3]
          +0.008*[#   4]
    |psi|^2 = 0.986
==== e(  13) =    -0.93407 eV ==== 
     psi = 0.175*[#  12]+0.175*[#  13]+0.175*[#  16]+0.175*[#  17]+0.086*[#   6]
          +0.086*[#   7]+0.050*[#   8]+0.050*[#   9]+0.006*[#   3]+0.006*[#   4]
          +0.002*[#   2]+0.001*[#   1]+0.001*[#  10]+0.001*[#  14]
    |psi|^2 = 0.990
==== e(  14) =     2.10696 eV ==== 
     psi = 0.288*[#   1]+0.200*[#   2]+0.111*[#   3]+0.111*[#   4]+0.028*[#  10]
          +0.028*[#  14]+0.017*[#  12]+0.017*[#  13]+0.017*[#  16]+0.017*[#  17]
          +0.008*[#  11]+0.008*[#  15]+0.003*[#   5]
    |psi|^2 = 0.853
==== e(  15) =     2.52550 eV ==== 
     psi = 0.127*[#   1]+0.039*[#   3]+0.039*[#   4]+0.036*[#  10]+0.036*[#  14]
          +0.020*[#  11]+0.020*[#  15]+0.020*[#  12]+0.020*[#  13]+0.020*[#  16]
          +0.020*[#  17]+0.002*[#   6]+0.002*[#   7]
    |psi|^2 = 0.402

 k =   0.0250000000  0.3319764048 -0.0621166667
==== e(   1) =   -16.81724 eV ==== 
     psi = 0.306*[#  10]+0.306*[#  14]+0.120*[#   3]+0.120*[#   4]+0.107*[#   1]
          +0.008*[#  11]+0.008*[#  15]+0.003*[#  12]+0.003*[#  13]+0.003*[#  16]
          +0.003*[#  17]+0.003*[#   8]+0.003*[#   9]+0.002*[#   5]+0.002*[#   6]
          +0.002*[#   7]
    |psi|^2 = 0.999
==== e(   2) =   -15.82638 eV ==== 
     psi = 0.396*[#  10]+0.396*[#  14]+0.113*[#   2]+0.025*[#   6]+0.025*[#   7]
          +0.017*[#   8]+0.017*[#   9]+0.005*[#   3]+0.005*[#   4]
    |psi|^2 = 0.999
==== e(   3) =    -8.71787 eV ==== 
     psi = 0.199*[#   8]+0.199*[#   9]+0.079*[#  12]+0.079*[#  13]+0.079*[#  16]
          +0.079*[#  17]+0.070*[#  11]+0.070*[#  15]+0.039*[#   1]+0.035*[#   2]
          +0.017*[#   5]+0.016*[#  10]+0.016*[#  14]+0.005*[#   6]+0.005*[#   7]
          +0.003*[#   3]+0.003*[#   4]
    |psi|^2 = 0.993
==== e(   4) =    -8.29877 eV ==== 
     psi = 0.204*[#   6]+0.204*[#   7]+0.136*[#   8]+0.136*[#   9]+0.075*[#  12]
          +0.075*[#  13]+0.075*[#  16]+0.075*[#  17]+0.002*[#   1]+0.002*[#   3]
          +0.002*[#   4]+0.002*[#  11]+0.002*[#  15]+0.001*[#   2]+0.001*[#  10]
          +0.001*[#  14]
    |psi|^2 = 0.996
==== e(   5) =    -8.10430 eV ==== 
     psi = 0.107*[#   6]+0.107*[#   7]+0.092*[#  11]+0.092*[#  15]+0.074*[#  12]
          +0.074*[#  13]+0.074*[#  16]+0.074*[#  17]+0.067*[#   1]+0.049*[#   5]
          +0.039*[#  10]+0.039*[#  14]+0.035*[#   8]+0.035*[#   9]+0.027*[#   2]
          +0.004*[#   3]+0.004*[#   4]
    |psi|^2 = 0.994
==== e(   6) =    -7.45576 eV ==== 
     psi = 0.454*[#   5]+0.117*[#  11]+0.117*[#  15]+0.059*[#   6]+0.059*[#   7]
          +0.041*[#  12]+0.041*[#  13]+0.041*[#  16]+0.041*[#  17]+0.014*[#   1]
          +0.004*[#  10]+0.004*[#  14]+0.001*[#   3]+0.001*[#   4]
    |psi|^2 = 0.997
==== e(   7) =    -6.57347 eV ==== 
     psi = 0.205*[#   8]+0.205*[#   9]+0.180*[#   6]+0.180*[#   7]+0.051*[#  12]
          +0.051*[#  13]+0.051*[#  16]+0.051*[#  17]+0.008*[#   3]+0.008*[#   4]
          +0.005*[#   5]+0.002*[#   1]
    |psi|^2 = 0.997
==== e(   8) =    -5.76591 eV ==== 
     psi = 0.192*[#   6]+0.192*[#   7]+0.102*[#   1]+0.096*[#   5]+0.090*[#   8]
          +0.090*[#   9]+0.036*[#  11]+0.036*[#  15]+0.027*[#  12]+0.027*[#  13]
          +0.027*[#  16]+0.027*[#  17]+0.023*[#  10]+0.023*[#  14]+0.006*[#   2]
          
    |psi|^2 = 0.993
==== e(   9) =    -4.41479 eV ==== 
     psi = 0.232*[#   5]+0.104*[#  11]+0.104*[#  15]+0.082*[#  12]+0.082*[#  13]
          +0.082*[#  16]+0.082*[#  17]+0.074*[#   8]+0.074*[#   9]+0.015*[#   2]
          +0.014*[#  10]+0.014*[#  14]+0.011*[#   3]+0.011*[#   4]+0.007*[#   1]
          +0.004*[#   6]+0.004*[#   7]
    |psi|^2 = 0.994
==== e(  10) =    -4.08130 eV ==== 
     psi = 0.162*[#  12]+0.162*[#  13]+0.162*[#  16]+0.162*[#  17]+0.092*[#   8]
          +0.092*[#   9]+0.032*[#   3]+0.032*[#   4]+0.030*[#   5]+0.022*[#  11]
          +0.022*[#  15]+0.013*[#   6]+0.013*[#   7]
    |psi|^2 = 0.997
==== e(  11) =    -3.78745 eV ==== 
     psi = 0.273*[#  11]+0.273*[#  15]+0.086*[#   5]+0.068*[#  12]+0.068*[#  13]
          +0.068*[#  16]+0.068*[#  17]+0.028*[#   6]+0.028*[#   7]+0.013*[#   8]
          +0.013*[#   9]+0.002*[#   3]+0.002*[#   4]+0.002*[#  10]+0.002*[#  14]
          
    |psi|^2 = 0.995
==== e(  12) =    -1.96927 eV ==== 
     psi = 0.206*[#  11]+0.206*[#  15]+0.082*[#   8]+0.082*[#   9]+0.066*[#   6]
          +0.066*[#   7]+0.044*[#   2]+0.036*[#  10]+0.036*[#  14]+0.032*[#  12]
          +0.032*[#  13]+0.032*[#  16]+0.032*[#  17]+0.022*[#   5]+0.006*[#   3]
          +0.006*[#   4]
    |psi|^2 = 0.986
==== e(  13) =    -0.92563 eV ==== 
     psi = 0.175*[#  12]+0.175*[#  13]+0.175*[#  16]+0.175*[#  17]+0.100*[#   6]
          +0.100*[#   7]+0.036*[#   8]+0.036*[#   9]+0.004*[#   3]+0.004*[#   4]
          +0.002*[#   2]+0.001*[#   1]+0.001*[#  10]+0.001*[#  14]
    |psi|^2 = 0.990
==== e(  14) =     1.72831 eV ==== 
     psi = 0.380*[#   1]+0.175*[#   2]+0.082*[#   3]+0.082*[#   4]+0.027*[#  12]
          +0.027*[#  13]+0.027*[#  16]+0.027*[#  17]+0.024*[#  10]+0.024*[#  14]
          +0.005*[#  11]+0.005*[#  15]+0.002*[#   8]+0.002*[#   9]+0.001*[#   5]
          +0.001*[#   6]+0.001*[#   7]
    |psi|^2 = 0.894
==== e(  15) =     2.87446 eV ==== 
     psi = 0.088*[#   1]+0.059*[#   3]+0.059*[#   4]+0.040*[#  10]+0.040*[#  14]
          +0.018*[#  11]+0.018*[#  15]+0.018*[#  12]+0.018*[#  13]+0.018*[#  16]
          +0.018*[#  17]+0.017*[#   2]+0.002*[#   6]+0.002*[#   7]+0.001*[#   8]
          +0.001*[#   9]
    |psi|^2 = 0.416

 k =   0.0250000000  0.3897114317 -0.0621166667
==== e(   1) =   -16.59137 eV ==== 
     psi = 0.320*[#  10]+0.320*[#  14]+0.117*[#   3]+0.117*[#   4]+0.080*[#   1]
          +0.006*[#  11]+0.006*[#  15]+0.005*[#   8]+0.005*[#   9]+0.005*[#   6]
          +0.005*[#   7]+0.003*[#  12]+0.003*[#  13]+0.003*[#  16]+0.003*[#  17]
          +0.002*[#   5]
    |psi|^2 = 0.999
==== e(   2) =   -15.85187 eV ==== 
     psi = 0.399*[#  10]+0.399*[#  14]+0.078*[#   2]+0.028*[#   6]+0.028*[#   7]
          +0.019*[#   8]+0.019*[#   9]+0.014*[#   3]+0.014*[#   4]
    |psi|^2 = 0.999
==== e(   3) =    -8.95326 eV ==== 
     psi = 0.113*[#   8]+0.113*[#   9]+0.102*[#   1]+0.099*[#  12]+0.099*[#  13]
          +0.099*[#  16]+0.099*[#  17]+0.055*[#  11]+0.055*[#  15]+0.045*[#   6]
          +0.045*[#   7]+0.023*[#  10]+0.023*[#  14]+0.012*[#   2]+0.008*[#   5]
          +0.001*[#   3]+0.001*[#   4]
    |psi|^2 = 0.993
==== e(   4) =    -8.24852 eV ==== 
     psi = 0.227*[#   6]+0.227*[#   7]+0.106*[#   8]+0.106*[#   9]+0.076*[#  12]
          +0.076*[#  13]+0.076*[#  16]+0.076*[#  17]+0.005*[#   2]+0.005*[#  11]
          +0.005*[#  15]+0.003*[#   3]+0.003*[#   4]+0.002*[#   1]+0.001*[#  10]
          +0.001*[#  14]
    |psi|^2 = 0.996
==== e(   5) =    -8.08140 eV ==== 
     psi = 0.097*[#   8]+0.097*[#   9]+0.090*[#  12]+0.090*[#  13]+0.090*[#  16]
          +0.090*[#  17]+0.088*[#   6]+0.088*[#   7]+0.055*[#  11]+0.055*[#  15]
          +0.050*[#   2]+0.043*[#   1]+0.022*[#  10]+0.022*[#  14]+0.008*[#   3]
          +0.008*[#   4]
    |psi|^2 = 0.994
==== e(   6) =    -7.32700 eV ==== 
     psi = 0.523*[#   5]+0.162*[#  11]+0.162*[#  15]+0.022*[#  12]+0.022*[#  13]
          +0.022*[#  16]+0.022*[#  17]+0.011*[#   6]+0.011*[#   7]+0.010*[#  10]
          +0.010*[#  14]+0.005*[#   1]+0.004*[#   3]+0.004*[#   4]+0.003*[#   8]
          +0.003*[#   9]
    |psi|^2 = 0.996
==== e(   7) =    -6.47333 eV ==== 
     psi = 0.230*[#   8]+0.230*[#   9]+0.136*[#   6]+0.136*[#   7]+0.058*[#  12]
          +0.058*[#  13]+0.058*[#  16]+0.058*[#  17]+0.010*[#   3]+0.010*[#   4]
          +0.006*[#   5]+0.003*[#   1]
    |psi|^2 = 0.997
==== e(   8) =    -5.78124 eV ==== 
     psi = 0.205*[#   6]+0.205*[#   7]+0.106*[#   8]+0.106*[#   9]+0.098*[#   1]
          +0.043*[#  11]+0.043*[#  15]+0.035*[#   5]+0.026*[#  12]+0.026*[#  13]
          +0.026*[#  16]+0.026*[#  17]+0.019*[#  10]+0.019*[#  14]+0.010*[#   2]
          
    |psi|^2 = 0.993
==== e(   9) =    -4.90294 eV ==== 
     psi = 0.258*[#   5]+0.081*[#  11]+0.081*[#  15]+0.076*[#   8]+0.076*[#   9]
          +0.074*[#  12]+0.074*[#  13]+0.074*[#  16]+0.074*[#  17]+0.021*[#  10]
          +0.021*[#  14]+0.018*[#   6]+0.018*[#   7]+0.018*[#   2]+0.012*[#   3]
          +0.012*[#   4]+0.006*[#   1]
    |psi|^2 = 0.995
==== e(  10) =    -4.40055 eV ==== 
     psi = 0.156*[#  12]+0.156*[#  13]+0.156*[#  16]+0.156*[#  17]+0.105*[#   8]
          +0.105*[#   9]+0.034*[#   3]+0.034*[#   4]+0.027*[#   5]+0.019*[#  11]
          +0.019*[#  15]+0.012*[#   6]+0.012*[#   7]
    |psi|^2 = 0.997
==== e(  11) =    -4.02324 eV ==== 
     psi = 0.265*[#  11]+0.265*[#  15]+0.114*[#   5]+0.058*[#  12]+0.058*[#  13]
          +0.058*[#  16]+0.058*[#  17]+0.033*[#   6]+0.033*[#   7]+0.017*[#   8]
          +0.017*[#   9]+0.004*[#   1]+0.004*[#   2]+0.003*[#  10]+0.003*[#  14]
          +0.002*[#   3]+0.002*[#   4]
    |psi|^2 = 0.996
==== e(  12) =    -1.68441 eV ==== 
     psi = 0.243*[#  11]+0.243*[#  15]+0.078*[#   8]+0.078*[#   9]+0.067*[#   6]
          +0.067*[#   7]+0.029*[#  10]+0.029*[#  14]+0.023*[#   5]+0.023*[#  12]
          +0.023*[#  13]+0.023*[#  16]+0.023*[#  17]+0.022*[#   2]+0.005*[#   3]
          +0.005*[#   4]+0.002*[#   1]
    |psi|^2 = 0.985
==== e(  13) =    -0.88306 eV ==== 
     psi = 0.175*[#  12]+0.175*[#  13]+0.175*[#  16]+0.175*[#  17]+0.112*[#   6]
          +0.112*[#   7]+0.027*[#   8]+0.027*[#   9]+0.003*[#   3]+0.003*[#   4]
          +0.002*[#   2]+0.002*[#  11]+0.002*[#  15]+0.001*[#  10]+0.001*[#  14]
          +0.001*[#   1]
    |psi|^2 = 0.990
==== e(  14) =     1.43280 eV ==== 
     psi = 0.406*[#   1]+0.148*[#   2]+0.057*[#   3]+0.057*[#   4]+0.036*[#  12]
          +0.036*[#  13]+0.036*[#  16]+0.036*[#  17]+0.022*[#  10]+0.022*[#  14]
          +0.004*[#   8]+0.004*[#   9]+0.004*[#  11]+0.004*[#  15]
    |psi|^2 = 0.877
==== e(  15) =     3.07538 eV ==== 
     psi = 0.109*[#   2]+0.091*[#   3]+0.091*[#   4]+0.081*[#   1]+0.058*[#  10]
          +0.058*[#  14]+0.023*[#  11]+0.023*[#  15]+0.019*[#  12]+0.019*[#  13]
          +0.019*[#  16]+0.019*[#  17]+0.002*[#   8]+0.002*[#   9]+0.002*[#   6]
          +0.002*[#   7]
    |psi|^2 = 0.619

 k =   0.0250000000  0.4474464586 -0.0621166667
==== e(   1) =   -16.38273 eV ==== 
     psi = 0.340*[#  10]+0.340*[#  14]+0.098*[#   3]+0.098*[#   4]+0.059*[#   1]
          +0.011*[#   6]+0.011*[#   7]+0.011*[#   8]+0.011*[#   9]+0.004*[#  11]
          +0.004*[#  15]+0.002*[#  12]+0.002*[#  13]+0.002*[#  16]+0.002*[#  17]
          +0.001*[#   5]
    |psi|^2 = 0.999
==== e(   2) =   -15.87992 eV ==== 
     psi = 0.397*[#  10]+0.397*[#  14]+0.047*[#   2]+0.033*[#   3]+0.033*[#   4]
          +0.026*[#   6]+0.026*[#   7]+0.018*[#   8]+0.018*[#   9]+0.001*[#   1]
          
    |psi|^2 = 0.999
==== e(   3) =    -9.27465 eV ==== 
     psi = 0.144*[#   1]+0.115*[#  12]+0.115*[#  13]+0.115*[#  16]+0.115*[#  17]
          +0.067*[#   6]+0.067*[#   7]+0.066*[#   8]+0.066*[#   9]+0.039*[#  11]
          +0.039*[#  15]+0.019*[#  10]+0.019*[#  14]+0.004*[#   2]+0.002*[#   5]
          
    |psi|^2 = 0.993
==== e(   4) =    -8.21403 eV ==== 
     psi = 0.261*[#   6]+0.261*[#   7]+0.082*[#   8]+0.082*[#   9]+0.074*[#  12]
          +0.074*[#  13]+0.074*[#  16]+0.074*[#  17]+0.002*[#   3]+0.002*[#   4]
          +0.002*[#  11]+0.002*[#  15]+0.002*[#   2]
    |psi|^2 = 0.996
==== e(   5) =    -7.92902 eV ==== 
     psi = 0.125*[#   8]+0.125*[#   9]+0.087*[#  12]+0.087*[#  13]+0.087*[#  16]
          +0.087*[#  17]+0.068*[#  11]+0.068*[#  15]+0.058*[#   2]+0.045*[#   6]
          +0.045*[#   7]+0.031*[#   1]+0.018*[#  10]+0.018*[#  14]+0.016*[#   5]
          +0.013*[#   3]+0.013*[#   4]
    |psi|^2 = 0.993
==== e(   6) =    -7.17818 eV ==== 
     psi = 0.471*[#   5]+0.156*[#  11]+0.156*[#  15]+0.031*[#  12]+0.031*[#  13]
          +0.031*[#  16]+0.031*[#  17]+0.014*[#   8]+0.014*[#   9]+0.013*[#  10]
          +0.013*[#  14]+0.010*[#   3]+0.010*[#   4]+0.008*[#   2]+0.006*[#   1]
          
    |psi|^2 = 0.995
==== e(   7) =    -6.29994 eV ==== 
     psi = 0.251*[#   8]+0.251*[#   9]+0.104*[#   6]+0.104*[#   7]+0.062*[#  12]
          +0.062*[#  13]+0.062*[#  16]+0.062*[#  17]+0.013*[#   3]+0.013*[#   4]
          +0.005*[#   1]+0.004*[#   5]+0.001*[#  10]+0.001*[#  14]+0.001*[#   2]
          +0.001*[#  11]+0.001*[#  15]
    |psi|^2 = 0.997
==== e(   8) =    -5.73444 eV ==== 
     psi = 0.191*[#   6]+0.191*[#   7]+0.127*[#   8]+0.127*[#   9]+0.097*[#   1]
          +0.054*[#  11]+0.054*[#  15]+0.028*[#  12]+0.028*[#  13]+0.028*[#  16]
          +0.028*[#  17]+0.015*[#  10]+0.015*[#  14]+0.013*[#   2]
    |psi|^2 = 0.993
==== e(   9) =    -5.34487 eV ==== 
     psi = 0.349*[#   5]+0.065*[#   8]+0.065*[#   9]+0.064*[#  11]+0.064*[#  15]
          +0.052*[#  12]+0.052*[#  13]+0.052*[#  16]+0.052*[#  17]+0.046*[#   6]
          +0.046*[#   7]+0.025*[#  10]+0.025*[#  14]+0.014*[#   2]+0.010*[#   3]
          +0.010*[#   4]+0.003*[#   1]
    |psi|^2 = 0.996
==== e(  10) =    -4.74259 eV ==== 
     psi = 0.155*[#  12]+0.155*[#  13]+0.155*[#  16]+0.155*[#  17]+0.105*[#   8]
          +0.105*[#   9]+0.036*[#   3]+0.036*[#   4]+0.023*[#   5]+0.021*[#  11]
          +0.021*[#  15]+0.013*[#   6]+0.013*[#   7]+0.001*[#   2]
    |psi|^2 = 0.997
==== e(  11) =    -4.30771 eV ==== 
     psi = 0.273*[#  11]+0.273*[#  15]+0.104*[#   5]+0.052*[#  12]+0.052*[#  13]
          +0.052*[#  16]+0.052*[#  17]+0.034*[#   6]+0.034*[#   7]+0.020*[#   8]
          +0.020*[#   9]+0.009*[#   2]+0.008*[#   1]+0.005*[#  10]+0.005*[#  14]
          +0.002*[#   3]+0.002*[#   4]
    |psi|^2 = 0.996
==== e(  12) =    -1.40416 eV ==== 
     psi = 0.254*[#  11]+0.254*[#  15]+0.076*[#   8]+0.076*[#   9]+0.070*[#   6]
          +0.070*[#   7]+0.025*[#   5]+0.025*[#  10]+0.025*[#  14]+0.023*[#  12]
          +0.023*[#  13]+0.023*[#  16]+0.023*[#  17]+0.008*[#   2]+0.004*[#   3]
          +0.004*[#   4]+0.003*[#   1]
    |psi|^2 = 0.985
==== e(  13) =    -0.83245 eV ==== 
     psi = 0.173*[#  12]+0.173*[#  13]+0.173*[#  16]+0.173*[#  17]+0.120*[#   6]
          +0.120*[#   7]+0.021*[#   8]+0.021*[#   9]+0.003*[#  11]+0.003*[#  15]
          +0.002*[#   2]+0.002*[#   3]+0.002*[#   4]+0.001*[#  10]+0.001*[#  14]
          
    |psi|^2 = 0.990
==== e(  14) =     1.25302 eV ==== 
     psi = 0.417*[#   1]+0.104*[#   2]+0.045*[#  12]+0.045*[#  13]+0.045*[#  16]
          +0.045*[#  17]+0.032*[#   3]+0.032*[#   4]+0.019*[#  10]+0.019*[#  14]
          +0.008*[#   8]+0.008*[#   9]+0.008*[#  11]+0.008*[#  15]
    |psi|^2 = 0.839
==== e(  15) =     2.97494 eV ==== 
     psi = 0.211*[#   2]+0.127*[#   3]+0.127*[#   4]+0.071*[#  10]+0.071*[#  14]
          +0.041*[#   1]+0.023*[#  11]+0.023*[#  15]+0.014*[#  12]+0.014*[#  13]
          +0.014*[#  16]+0.014*[#  17]+0.002*[#   8]+0.002*[#   9]+0.001*[#   6]
          +0.001*[#   7]
    |psi|^2 = 0.757

 k =   0.0250000000  0.5051814855 -0.0621166667
==== e(   1) =   -16.21695 eV ==== 
     psi = 0.368*[#  10]+0.368*[#  14]+0.058*[#   3]+0.058*[#   4]+0.046*[#   1]
          +0.023*[#   6]+0.023*[#   7]+0.020*[#   8]+0.020*[#   9]+0.003*[#  11]
          +0.003*[#  15]+0.002*[#  12]+0.002*[#  13]+0.002*[#  16]+0.002*[#  17]
          
    |psi|^2 = 0.999
==== e(   2) =   -15.91144 eV ==== 
     psi = 0.384*[#  10]+0.384*[#  14]+0.072*[#   3]+0.072*[#   4]+0.025*[#   2]
          +0.016*[#   6]+0.016*[#   7]+0.012*[#   8]+0.012*[#   9]+0.002*[#   1]
          +0.002*[#  11]+0.002*[#  15]
    |psi|^2 = 1.000
==== e(   3) =    -9.52956 eV ==== 
     psi = 0.167*[#   1]+0.123*[#  12]+0.123*[#  13]+0.123*[#  16]+0.123*[#  17]
          +0.075*[#   6]+0.075*[#   7]+0.047*[#   8]+0.047*[#   9]+0.031*[#  11]
          +0.031*[#  15]+0.013*[#  10]+0.013*[#  14]
    |psi|^2 = 0.991
==== e(   4) =    -8.20021 eV ==== 
     psi = 0.282*[#   6]+0.282*[#   7]+0.074*[#  12]+0.074*[#  13]+0.074*[#  16]
          +0.074*[#  17]+0.065*[#   8]+0.065*[#   9]+0.001*[#   3]+0.001*[#   4]
          
    |psi|^2 = 0.996
==== e(   5) =    -7.69894 eV ==== 
     psi = 0.136*[#   8]+0.136*[#   9]+0.085*[#  11]+0.085*[#  15]+0.077*[#  12]
          +0.077*[#  13]+0.077*[#  16]+0.077*[#  17]+0.059*[#   5]+0.050*[#   2]
          +0.029*[#   1]+0.020*[#   6]+0.020*[#   7]+0.018*[#  10]+0.018*[#  14]
          +0.014*[#   3]+0.014*[#   4]
    |psi|^2 = 0.993
==== e(   6) =    -7.15018 eV ==== 
     psi = 0.297*[#   5]+0.131*[#  11]+0.131*[#  15]+0.064*[#  12]+0.064*[#  13]
          +0.064*[#  16]+0.064*[#  17]+0.034*[#   8]+0.034*[#   9]+0.030*[#   2]
          +0.019*[#   3]+0.019*[#   4]+0.016*[#  10]+0.016*[#  14]+0.011*[#   1]
          
    |psi|^2 = 0.994
==== e(   7) =    -6.06989 eV ==== 
     psi = 0.276*[#   8]+0.276*[#   9]+0.088*[#   6]+0.088*[#   7]+0.055*[#  12]
          +0.055*[#  13]+0.055*[#  16]+0.055*[#  17]+0.012*[#   3]+0.012*[#   4]
          +0.007*[#   1]+0.004*[#  11]+0.004*[#  15]+0.003*[#  10]+0.003*[#  14]
          +0.002*[#   5]+0.001*[#   2]
    |psi|^2 = 0.998
==== e(   8) =    -5.67012 eV ==== 
     psi = 0.500*[#   5]+0.124*[#   8]+0.124*[#   9]+0.037*[#  12]+0.037*[#  13]
          +0.037*[#  16]+0.037*[#  17]+0.033*[#   1]+0.018*[#  11]+0.018*[#  15]
          +0.015*[#   2]+0.006*[#  10]+0.006*[#  14]+0.003*[#   3]+0.003*[#   4]
          
    |psi|^2 = 0.997
==== e(   9) =    -5.61554 eV ==== 
     psi = 0.238*[#   6]+0.238*[#   7]+0.080*[#  11]+0.080*[#  15]+0.079*[#   8]
          +0.079*[#   9]+0.059*[#   1]+0.031*[#   5]+0.031*[#  10]+0.031*[#  14]
          +0.010*[#  12]+0.010*[#  13]+0.010*[#  16]+0.010*[#  17]+0.002*[#   3]
          +0.002*[#   4]+0.001*[#   2]
    |psi|^2 = 0.994
==== e(  10) =    -5.05767 eV ==== 
     psi = 0.161*[#  12]+0.161*[#  13]+0.161*[#  16]+0.161*[#  17]+0.076*[#   8]
          +0.076*[#   9]+0.039*[#   3]+0.039*[#   4]+0.030*[#  11]+0.030*[#  15]
          +0.020*[#   6]+0.020*[#   7]+0.013*[#   5]+0.003*[#   2]+0.002*[#  10]
          +0.002*[#  14]+0.001*[#   1]
    |psi|^2 = 0.997
==== e(  11) =    -4.61309 eV ==== 
     psi = 0.296*[#  11]+0.296*[#  15]+0.064*[#   5]+0.051*[#  12]+0.051*[#  13]
          +0.051*[#  16]+0.051*[#  17]+0.028*[#   6]+0.028*[#   7]+0.018*[#   8]
          +0.018*[#   9]+0.018*[#   2]+0.009*[#   1]+0.006*[#  10]+0.006*[#  14]
          +0.003*[#   3]+0.003*[#   4]
    |psi|^2 = 0.996
==== e(  12) =    -1.19497 eV ==== 
     psi = 0.255*[#  11]+0.255*[#  15]+0.074*[#   8]+0.074*[#   9]+0.073*[#   6]
          +0.073*[#   7]+0.028*[#   5]+0.025*[#  12]+0.025*[#  13]+0.025*[#  16]
          +0.025*[#  17]+0.022*[#  10]+0.022*[#  14]+0.005*[#   1]+0.002*[#   3]
          +0.002*[#   4]+0.001*[#   2]
    |psi|^2 = 0.985
==== e(  13) =    -0.79413 eV ==== 
     psi = 0.173*[#  12]+0.173*[#  13]+0.173*[#  16]+0.173*[#  17]+0.125*[#   6]
          +0.125*[#   7]+0.017*[#   8]+0.017*[#   9]+0.003*[#  11]+0.003*[#  15]
          +0.001*[#   2]+0.001*[#   3]+0.001*[#   4]+0.001*[#  10]+0.001*[#  14]
          
    |psi|^2 = 0.989
==== e(  14) =     1.17567 eV ==== 
     psi = 0.425*[#   1]+0.053*[#  12]+0.053*[#  13]+0.053*[#  16]+0.053*[#  17]
          +0.044*[#   2]+0.016*[#  11]+0.016*[#  15]+0.014*[#  10]+0.014*[#  14]
          +0.013*[#   8]+0.013*[#   9]+0.012*[#   3]+0.012*[#   4]
    |psi|^2 = 0.795
==== e(  15) =     2.78832 eV ==== 
     psi = 0.285*[#   2]+0.149*[#   3]+0.149*[#   4]+0.077*[#  10]+0.077*[#  14]
          +0.021*[#  11]+0.021*[#  15]+0.013*[#   1]+0.006*[#  12]+0.006*[#  13]
          +0.006*[#  16]+0.006*[#  17]
    |psi|^2 = 0.820

 k =   0.0250000000  0.5629165124 -0.0621166667
==== e(   1) =   -16.12682 eV ==== 
     psi = 0.398*[#  10]+0.398*[#  14]+0.042*[#   1]+0.039*[#   6]+0.039*[#   7]
          +0.032*[#   8]+0.032*[#   9]+0.005*[#   3]+0.005*[#   4]+0.002*[#  12]
          +0.002*[#  13]+0.002*[#  16]+0.002*[#  17]+0.001*[#  11]+0.001*[#  15]
          
    |psi|^2 = 0.999
==== e(   2) =   -15.93843 eV ==== 
     psi = 0.362*[#  10]+0.362*[#  14]+0.125*[#   3]+0.125*[#   4]+0.014*[#   2]
          +0.003*[#  11]+0.003*[#  15]+0.001*[#   6]+0.001*[#   7]+0.001*[#   8]
          +0.001*[#   9]
    |psi|^2 = 1.000
==== e(   3) =    -9.64943 eV ==== 
     psi = 0.177*[#   1]+0.126*[#  12]+0.126*[#  13]+0.126*[#  16]+0.126*[#  17]
          +0.077*[#   6]+0.077*[#   7]+0.041*[#   8]+0.041*[#   9]+0.028*[#  11]
          +0.028*[#  15]+0.009*[#  10]+0.009*[#  14]
    |psi|^2 = 0.991
==== e(   4) =    -8.19677 eV ==== 
     psi = 0.290*[#   6]+0.290*[#   7]+0.074*[#  12]+0.074*[#  13]+0.074*[#  16]
          +0.074*[#  17]+0.059*[#   8]+0.059*[#   9]+0.001*[#   3]+0.001*[#   4]
          
    |psi|^2 = 0.996
==== e(   5) =    -7.46583 eV ==== 
     psi = 0.196*[#   5]+0.171*[#   8]+0.171*[#   9]+0.108*[#  11]+0.108*[#  15]
          +0.039*[#   1]+0.033*[#  12]+0.033*[#  13]+0.033*[#  16]+0.033*[#  17]
          +0.017*[#  10]+0.017*[#  14]+0.012*[#   2]+0.008*[#   6]+0.008*[#   7]
          +0.004*[#   3]+0.004*[#   4]
    |psi|^2 = 0.994
==== e(   6) =    -7.27128 eV ==== 
     psi = 0.128*[#  12]+0.128*[#  13]+0.128*[#  16]+0.128*[#  17]+0.102*[#  11]
          +0.102*[#  15]+0.077*[#   2]+0.046*[#   5]+0.036*[#   3]+0.036*[#   4]
          +0.020*[#   8]+0.020*[#   9]+0.019*[#  10]+0.019*[#  14]+0.004*[#   1]
          
    |psi|^2 = 0.992
==== e(   7) =    -5.84203 eV ==== 
     psi = 0.324*[#   8]+0.324*[#   9]+0.089*[#   6]+0.089*[#   7]+0.068*[#   5]
          +0.017*[#  12]+0.017*[#  13]+0.017*[#  16]+0.017*[#  17]+0.009*[#  11]
          +0.009*[#  15]+0.006*[#  10]+0.006*[#  14]+0.004*[#   3]+0.004*[#   4]
          +0.002*[#   1]
    |psi|^2 = 0.998
==== e(   8) =    -5.79449 eV ==== 
     psi = 0.527*[#   5]+0.110*[#   8]+0.110*[#   9]+0.072*[#   6]+0.072*[#   7]
          +0.026*[#  11]+0.026*[#  15]+0.017*[#  10]+0.017*[#  14]+0.004*[#  12]
          +0.004*[#  13]+0.004*[#  16]+0.004*[#  17]+0.001*[#   2]
    |psi|^2 = 0.997
==== e(   9) =    -5.60577 eV ==== 
     psi = 0.124*[#   5]+0.120*[#   6]+0.120*[#   7]+0.092*[#   8]+0.092*[#   9]
          +0.077*[#   1]+0.071*[#  12]+0.071*[#  13]+0.071*[#  16]+0.071*[#  17]
          +0.020*[#  11]+0.020*[#  15]+0.015*[#   3]+0.015*[#   4]+0.010*[#  10]
          +0.010*[#  14]
    |psi|^2 = 0.996
==== e(  10) =    -5.19743 eV ==== 
     psi = 0.144*[#  12]+0.144*[#  13]+0.144*[#  16]+0.144*[#  17]+0.086*[#   6]
          +0.086*[#   7]+0.037*[#   8]+0.037*[#   9]+0.036*[#   3]+0.036*[#   4]
          +0.029*[#  11]+0.029*[#  15]+0.025*[#   1]+0.008*[#  10]+0.008*[#  14]
          +0.002*[#   5]
    |psi|^2 = 0.996
==== e(  11) =    -4.84332 eV ==== 
     psi = 0.354*[#  11]+0.354*[#  15]+0.055*[#  12]+0.055*[#  13]+0.055*[#  16]
          +0.055*[#  17]+0.030*[#   2]+0.007*[#  10]+0.007*[#  14]+0.005*[#   5]
          +0.005*[#   8]+0.005*[#   9]+0.004*[#   6]+0.004*[#   7]+0.002*[#   3]
          +0.002*[#   4]+0.001*[#   1]
    |psi|^2 = 0.996
==== e(  12) =    -1.09703 eV ==== 
     psi = 0.255*[#  11]+0.255*[#  15]+0.075*[#   6]+0.075*[#   7]+0.073*[#   8]
          +0.073*[#   9]+0.029*[#   5]+0.025*[#  12]+0.025*[#  13]+0.025*[#  16]
          +0.025*[#  17]+0.021*[#  10]+0.021*[#  14]+0.006*[#   1]
    |psi|^2 = 0.985
==== e(  13) =    -0.77787 eV ==== 
     psi = 0.174*[#  12]+0.174*[#  13]+0.174*[#  16]+0.174*[#  17]+0.127*[#   6]
          +0.127*[#   7]+0.016*[#   8]+0.016*[#   9]+0.001*[#  11]+0.001*[#  15]
          +0.001*[#   2]
    |psi|^2 = 0.989
==== e(  14) =     1.15740 eV ==== 
     psi = 0.431*[#   1]+0.058*[#  12]+0.058*[#  13]+0.058*[#  16]+0.058*[#  17]
          +0.023*[#  11]+0.023*[#  15]+0.017*[#   8]+0.017*[#   9]+0.011*[#  10]
          +0.011*[#  14]+0.002*[#   2]
    |psi|^2 = 0.767
==== e(  15) =     2.68694 eV ==== 
     psi = 0.331*[#   2]+0.161*[#   3]+0.161*[#   4]+0.080*[#  10]+0.080*[#  14]
          +0.020*[#  11]+0.020*[#  15]+0.002*[#  12]+0.002*[#  13]+0.002*[#  16]
          +0.002*[#  17]
    |psi|^2 = 0.861

 k =   0.0250000000 -0.5340489990 -0.0621166667
==== e(   1) =   -16.15946 eV ==== 
     psi = 0.385*[#  10]+0.385*[#  14]+0.043*[#   1]+0.031*[#   6]+0.031*[#   7]
          +0.030*[#   3]+0.030*[#   4]+0.026*[#   8]+0.026*[#   9]+0.002*[#  11]
          +0.002*[#  15]+0.002*[#  12]+0.002*[#  13]+0.002*[#  16]+0.002*[#  17]
          
    |psi|^2 = 0.999
==== e(   2) =   -15.92724 eV ==== 
     psi = 0.373*[#  10]+0.373*[#  14]+0.100*[#   3]+0.100*[#   4]+0.018*[#   2]
          +0.009*[#   6]+0.009*[#   7]+0.006*[#   8]+0.006*[#   9]+0.002*[#  11]
          +0.002*[#  15]+0.001*[#   1]
    |psi|^2 = 1.000
==== e(   3) =    -9.60877 eV ==== 
     psi = 0.173*[#   1]+0.125*[#  12]+0.125*[#  13]+0.125*[#  16]+0.125*[#  17]
          +0.076*[#   6]+0.076*[#   7]+0.043*[#   8]+0.043*[#   9]+0.029*[#  11]
          +0.029*[#  15]+0.010*[#  10]+0.010*[#  14]
    |psi|^2 = 0.991
==== e(   4) =    -8.19775 eV ==== 
     psi = 0.288*[#   6]+0.288*[#   7]+0.074*[#  12]+0.074*[#  13]+0.074*[#  16]
          +0.074*[#  17]+0.061*[#   8]+0.061*[#   9]+0.001*[#   3]+0.001*[#   4]
          
    |psi|^2 = 0.996
==== e(   5) =    -7.57398 eV ==== 
     psi = 0.144*[#   8]+0.144*[#   9]+0.105*[#   5]+0.095*[#  11]+0.095*[#  15]
          +0.064*[#  12]+0.064*[#  13]+0.064*[#  16]+0.064*[#  17]+0.038*[#   2]
          +0.031*[#   1]+0.018*[#  10]+0.018*[#  14]+0.012*[#   3]+0.012*[#   4]
          +0.012*[#   6]+0.012*[#   7]
    |psi|^2 = 0.994
==== e(   6) =    -7.19959 eV ==== 
     psi = 0.180*[#   5]+0.117*[#  11]+0.117*[#  15]+0.089*[#  12]+0.089*[#  13]
          +0.089*[#  16]+0.089*[#  17]+0.048*[#   2]+0.039*[#   8]+0.039*[#   9]
          +0.026*[#   3]+0.026*[#   4]+0.017*[#  10]+0.017*[#  14]+0.011*[#   1]
          
    |psi|^2 = 0.993
==== e(   7) =    -5.94633 eV ==== 
     psi = 0.300*[#   8]+0.300*[#   9]+0.087*[#   6]+0.087*[#   7]+0.043*[#  12]
          +0.043*[#  13]+0.043*[#  16]+0.043*[#  17]+0.010*[#   3]+0.010*[#   4]
          +0.008*[#   5]+0.006*[#  11]+0.006*[#  15]+0.006*[#   1]+0.004*[#  10]
          +0.004*[#  14]+0.001*[#   2]
    |psi|^2 = 0.998
==== e(   8) =    -5.74865 eV ==== 
     psi = 0.594*[#   5]+0.076*[#   8]+0.076*[#   9]+0.049*[#   6]+0.049*[#   7]
          +0.029*[#  11]+0.029*[#  15]+0.017*[#  10]+0.017*[#  14]+0.013*[#  12]
          +0.013*[#  13]+0.013*[#  16]+0.013*[#  17]+0.005*[#   2]+0.004*[#   1]
          +0.002*[#   3]+0.002*[#   4]
    |psi|^2 = 0.997
==== e(   9) =    -5.59000 eV ==== 
     psi = 0.173*[#   6]+0.173*[#   7]+0.134*[#   8]+0.134*[#   9]+0.082*[#   1]
          +0.045*[#   5]+0.043*[#  11]+0.043*[#  15]+0.031*[#  12]+0.031*[#  13]
          +0.031*[#  16]+0.031*[#  17]+0.016*[#  10]+0.016*[#  14]+0.005*[#   3]
          +0.005*[#   4]+0.002*[#   2]
    |psi|^2 = 0.995
==== e(  10) =    -5.16295 eV ==== 
     psi = 0.160*[#  12]+0.160*[#  13]+0.160*[#  16]+0.160*[#  17]+0.047*[#   8]
          +0.047*[#   9]+0.044*[#   6]+0.044*[#   7]+0.039*[#   3]+0.039*[#   4]
          +0.036*[#  11]+0.036*[#  15]+0.009*[#   1]+0.004*[#  10]+0.004*[#  14]
          +0.003*[#   2]+0.003*[#   5]
    |psi|^2 = 0.996
==== e(  11) =    -4.75040 eV ==== 
     psi = 0.320*[#  11]+0.320*[#  15]+0.053*[#  12]+0.053*[#  13]+0.053*[#  16]
          +0.053*[#  17]+0.034*[#   5]+0.024*[#   2]+0.019*[#   6]+0.019*[#   7]
          +0.013*[#   8]+0.013*[#   9]+0.007*[#   1]+0.007*[#  10]+0.007*[#  14]
          +0.002*[#   3]+0.002*[#   4]
    |psi|^2 = 0.996
==== e(  12) =    -1.13032 eV ==== 
     psi = 0.255*[#  11]+0.255*[#  15]+0.074*[#   6]+0.074*[#   7]+0.073*[#   8]
          +0.073*[#   9]+0.029*[#   5]+0.025*[#  12]+0.025*[#  13]+0.025*[#  16]
          +0.025*[#  17]+0.021*[#  10]+0.021*[#  14]+0.006*[#   1]
    |psi|^2 = 0.985
==== e(  13) =    -0.78315 eV ==== 
     psi = 0.173*[#  12]+0.173*[#  13]+0.173*[#  16]+0.173*[#  17]+0.127*[#   6]
          +0.127*[#   7]+0.016*[#   8]+0.016*[#   9]+0.002*[#  11]+0.002*[#  15]
          +0.001*[#   2]
    |psi|^2 = 0.989
==== e(  14) =     1.16223 eV ==== 
     psi = 0.429*[#   1]+0.056*[#  12]+0.056*[#  13]+0.056*[#  16]+0.056*[#  17]
          +0.020*[#  11]+0.020*[#  15]+0.018*[#   2]+0.015*[#   8]+0.015*[#   9]
          +0.012*[#  10]+0.012*[#  14]+0.005*[#   3]+0.005*[#   4]
    |psi|^2 = 0.777
==== e(  15) =     2.72206 eV ==== 
     psi = 0.314*[#   2]+0.157*[#   3]+0.157*[#   4]+0.079*[#  10]+0.079*[#  14]
          +0.020*[#  11]+0.020*[#  15]+0.005*[#   1]+0.003*[#  12]+0.003*[#  13]
          +0.003*[#  16]+0.003*[#  17]
    |psi|^2 = 0.846

 k =   0.0250000000 -0.4763139721 -0.0621166667
==== e(   1) =   -16.29278 eV ==== 
     psi = 0.353*[#  10]+0.353*[#  14]+0.082*[#   3]+0.082*[#   4]+0.052*[#   1]
          +0.016*[#   6]+0.016*[#   7]+0.015*[#   8]+0.015*[#   9]+0.004*[#  11]
          +0.004*[#  15]+0.002*[#  12]+0.002*[#  13]+0.002*[#  16]+0.002*[#  17]
          
    |psi|^2 = 0.999
==== e(   2) =   -15.89525 eV ==== 
     psi = 0.392*[#  10]+0.392*[#  14]+0.050*[#   3]+0.050*[#   4]+0.035*[#   2]
          +0.022*[#   6]+0.022*[#   7]+0.016*[#   8]+0.016*[#   9]+0.002*[#   1]
          +0.001*[#  11]+0.001*[#  15]
    |psi|^2 = 1.000
==== e(   3) =    -9.41599 eV ==== 
     psi = 0.157*[#   1]+0.120*[#  12]+0.120*[#  13]+0.120*[#  16]+0.120*[#  17]
          +0.072*[#   6]+0.072*[#   7]+0.054*[#   8]+0.054*[#   9]+0.034*[#  11]
          +0.034*[#  15]+0.016*[#  10]+0.016*[#  14]+0.002*[#   2]+0.001*[#   5]
          
    |psi|^2 = 0.992
==== e(   4) =    -8.20516 eV ==== 
     psi = 0.274*[#   6]+0.274*[#   7]+0.074*[#  12]+0.074*[#  13]+0.074*[#  16]
          +0.074*[#  17]+0.073*[#   8]+0.073*[#   9]+0.002*[#   3]+0.002*[#   4]
          +0.001*[#  11]+0.001*[#  15]
    |psi|^2 = 0.996
==== e(   5) =    -7.82018 eV ==== 
     psi = 0.132*[#   8]+0.132*[#   9]+0.084*[#  12]+0.084*[#  13]+0.084*[#  16]
          +0.084*[#  17]+0.077*[#  11]+0.077*[#  15]+0.056*[#   2]+0.033*[#   5]
          +0.030*[#   6]+0.030*[#   7]+0.029*[#   1]+0.018*[#  10]+0.018*[#  14]
          +0.014*[#   3]+0.014*[#   4]
    |psi|^2 = 0.993
==== e(   6) =    -7.14315 eV ==== 
     psi = 0.399*[#   5]+0.145*[#  11]+0.145*[#  15]+0.044*[#  12]+0.044*[#  13]
          +0.044*[#  16]+0.044*[#  17]+0.024*[#   8]+0.024*[#   9]+0.017*[#   2]
          +0.014*[#  10]+0.014*[#  14]+0.014*[#   3]+0.014*[#   4]+0.008*[#   1]
          
    |psi|^2 = 0.994
==== e(   7) =    -6.19031 eV ==== 
     psi = 0.262*[#   8]+0.262*[#   9]+0.094*[#   6]+0.094*[#   7]+0.060*[#  12]
          +0.060*[#  13]+0.060*[#  16]+0.060*[#  17]+0.013*[#   3]+0.013*[#   4]
          +0.006*[#   1]+0.003*[#   5]+0.002*[#  11]+0.002*[#  15]+0.002*[#  10]
          +0.002*[#  14]+0.001*[#   2]
    |psi|^2 = 0.997
==== e(   8) =    -5.68794 eV ==== 
     psi = 0.161*[#   6]+0.161*[#   7]+0.145*[#   8]+0.145*[#   9]+0.096*[#   1]
          +0.051*[#  11]+0.051*[#  15]+0.030*[#  12]+0.030*[#  13]+0.030*[#  16]
          +0.030*[#  17]+0.028*[#   5]+0.014*[#   2]+0.011*[#  10]+0.011*[#  14]
          
    |psi|^2 = 0.994
==== e(   9) =    -5.51926 eV ==== 
     psi = 0.398*[#   5]+0.079*[#   6]+0.079*[#   7]+0.061*[#  11]+0.061*[#  15]
          +0.051*[#   8]+0.051*[#   9]+0.034*[#  12]+0.034*[#  13]+0.034*[#  16]
          +0.034*[#  17]+0.028*[#  10]+0.028*[#  14]+0.009*[#   2]+0.007*[#   3]
          +0.007*[#   4]
    |psi|^2 = 0.996
==== e(  10) =    -4.90881 eV ==== 
     psi = 0.157*[#  12]+0.157*[#  13]+0.157*[#  16]+0.157*[#  17]+0.096*[#   8]
          +0.096*[#   9]+0.037*[#   3]+0.037*[#   4]+0.024*[#  11]+0.024*[#  15]
          +0.020*[#   5]+0.014*[#   6]+0.014*[#   7]+0.002*[#   2]
    |psi|^2 = 0.997
==== e(  11) =    -4.46101 eV ==== 
     psi = 0.282*[#  11]+0.282*[#  15]+0.088*[#   5]+0.051*[#  12]+0.051*[#  13]
          +0.051*[#  16]+0.051*[#  17]+0.032*[#   6]+0.032*[#   7]+0.020*[#   8]
          +0.020*[#   9]+0.013*[#   2]+0.009*[#   1]+0.005*[#  10]+0.005*[#  14]
          +0.003*[#   3]+0.003*[#   4]
    |psi|^2 = 0.996
==== e(  12) =    -1.28769 eV ==== 
     psi = 0.255*[#  11]+0.255*[#  15]+0.075*[#   8]+0.075*[#   9]+0.072*[#   6]
          +0.072*[#   7]+0.027*[#   5]+0.024*[#  12]+0.024*[#  13]+0.024*[#  16]
          +0.024*[#  17]+0.023*[#  10]+0.023*[#  14]+0.004*[#   1]+0.004*[#   2]
          +0.003*[#   3]+0.003*[#   4]
    |psi|^2 = 0.985
==== e(  13) =    -0.81084 eV ==== 
     psi = 0.173*[#  12]+0.173*[#  13]+0.173*[#  16]+0.173*[#  17]+0.123*[#   6]
          +0.123*[#   7]+0.019*[#   8]+0.019*[#   9]+0.003*[#  11]+0.003*[#  15]
          +0.002*[#   2]+0.001*[#   3]+0.001*[#   4]+0.001*[#  10]+0.001*[#  14]
          
    |psi|^2 = 0.989
==== e(  14) =     1.20381 eV ==== 
     psi = 0.421*[#   1]+0.074*[#   2]+0.050*[#  12]+0.050*[#  13]+0.050*[#  16]
          +0.050*[#  17]+0.021*[#   3]+0.021*[#   4]+0.017*[#  10]+0.017*[#  14]
          +0.012*[#  11]+0.012*[#  15]+0.011*[#   8]+0.011*[#   9]
    |psi|^2 = 0.817
==== e(  15) =     2.87746 eV ==== 
     psi = 0.249*[#   2]+0.139*[#   3]+0.139*[#   4]+0.074*[#  10]+0.074*[#  14]
          +0.025*[#   1]+0.022*[#  11]+0.022*[#  15]+0.010*[#  12]+0.010*[#  13]
          +0.010*[#  16]+0.010*[#  17]+0.001*[#   8]+0.001*[#   9]
    |psi|^2 = 0.789

 k =   0.0250000000 -0.4185789452 -0.0621166667
==== e(   1) =   -16.48335 eV ==== 
     psi = 0.329*[#  10]+0.329*[#  14]+0.110*[#   3]+0.110*[#   4]+0.069*[#   1]
          +0.008*[#   8]+0.008*[#   9]+0.007*[#   6]+0.007*[#   7]+0.005*[#  11]
          +0.005*[#  15]+0.003*[#  12]+0.003*[#  13]+0.003*[#  16]+0.003*[#  17]
          +0.001*[#   5]
    |psi|^2 = 0.999
==== e(   2) =   -15.86551 eV ==== 
     psi = 0.399*[#  10]+0.399*[#  14]+0.062*[#   2]+0.027*[#   6]+0.027*[#   7]
          +0.022*[#   3]+0.022*[#   4]+0.019*[#   8]+0.019*[#   9]+0.001*[#   1]
          
    |psi|^2 = 0.999
==== e(   3) =    -9.11535 eV ==== 
     psi = 0.126*[#   1]+0.108*[#  12]+0.108*[#  13]+0.108*[#  16]+0.108*[#  17]
          +0.084*[#   8]+0.084*[#   9]+0.059*[#   6]+0.059*[#   7]+0.046*[#  11]
          +0.046*[#  15]+0.022*[#  10]+0.022*[#  14]+0.007*[#   2]+0.004*[#   5]
          
    |psi|^2 = 0.993
==== e(   4) =    -8.22836 eV ==== 
     psi = 0.245*[#   6]+0.245*[#   7]+0.094*[#   8]+0.094*[#   9]+0.075*[#  12]
          +0.075*[#  13]+0.075*[#  16]+0.075*[#  17]+0.003*[#  11]+0.003*[#  15]
          +0.003*[#   2]+0.003*[#   3]+0.003*[#   4]
    |psi|^2 = 0.996
==== e(   5) =    -8.01850 eV ==== 
     psi = 0.114*[#   8]+0.114*[#   9]+0.089*[#  12]+0.089*[#  13]+0.089*[#  16]
          +0.089*[#  17]+0.065*[#   6]+0.065*[#   7]+0.060*[#  11]+0.060*[#  15]
          +0.056*[#   2]+0.035*[#   1]+0.019*[#  10]+0.019*[#  14]+0.011*[#   3]
          +0.011*[#   4]+0.005*[#   5]
    |psi|^2 = 0.993
==== e(   6) =    -7.24465 eV ==== 
     psi = 0.511*[#   5]+0.163*[#  11]+0.163*[#  15]+0.023*[#  12]+0.023*[#  13]
          +0.023*[#  16]+0.023*[#  17]+0.012*[#  10]+0.012*[#  14]+0.007*[#   8]
          +0.007*[#   9]+0.006*[#   3]+0.006*[#   4]+0.005*[#   1]+0.004*[#   6]
          +0.004*[#   7]+0.003*[#   2]
    |psi|^2 = 0.996
==== e(   7) =    -6.39507 eV ==== 
     psi = 0.241*[#   8]+0.241*[#   9]+0.118*[#   6]+0.118*[#   7]+0.061*[#  12]
          +0.061*[#  13]+0.061*[#  16]+0.061*[#  17]+0.012*[#   3]+0.012*[#   4]
          +0.005*[#   5]+0.004*[#   1]+0.001*[#  10]+0.001*[#  14]
    |psi|^2 = 0.997
==== e(   8) =    -5.76616 eV ==== 
     psi = 0.202*[#   6]+0.202*[#   7]+0.115*[#   8]+0.115*[#   9]+0.098*[#   1]
          +0.049*[#  11]+0.049*[#  15]+0.026*[#  12]+0.026*[#  13]+0.026*[#  16]
          +0.026*[#  17]+0.018*[#  10]+0.018*[#  14]+0.011*[#   2]+0.011*[#   5]
          
    |psi|^2 = 0.993
==== e(   9) =    -5.13557 eV ==== 
     psi = 0.296*[#   5]+0.072*[#   8]+0.072*[#   9]+0.072*[#  11]+0.072*[#  15]
          +0.065*[#  12]+0.065*[#  13]+0.065*[#  16]+0.065*[#  17]+0.030*[#   6]
          +0.030*[#   7]+0.023*[#  10]+0.023*[#  14]+0.017*[#   2]+0.011*[#   3]
          +0.011*[#   4]+0.005*[#   1]
    |psi|^2 = 0.996
==== e(  10) =    -4.57102 eV ==== 
     psi = 0.155*[#  12]+0.155*[#  13]+0.155*[#  16]+0.155*[#  17]+0.108*[#   8]
          +0.108*[#   9]+0.035*[#   3]+0.035*[#   4]+0.025*[#   5]+0.020*[#  11]
          +0.020*[#  15]+0.012*[#   6]+0.012*[#   7]+0.001*[#   2]
    |psi|^2 = 0.997
==== e(  11) =    -4.16039 eV ==== 
     psi = 0.268*[#  11]+0.268*[#  15]+0.113*[#   5]+0.054*[#  12]+0.054*[#  13]
          +0.054*[#  16]+0.054*[#  17]+0.034*[#   6]+0.034*[#   7]+0.019*[#   8]
          +0.019*[#   9]+0.006*[#   1]+0.006*[#   2]+0.004*[#  10]+0.004*[#  14]
          +0.002*[#   3]+0.002*[#   4]
    |psi|^2 = 0.996
==== e(  12) =    -1.53877 eV ==== 
     psi = 0.251*[#  11]+0.251*[#  15]+0.077*[#   8]+0.077*[#   9]+0.068*[#   6]
          +0.068*[#   7]+0.027*[#  10]+0.027*[#  14]+0.024*[#   5]+0.022*[#  12]
          +0.022*[#  13]+0.022*[#  16]+0.022*[#  17]+0.014*[#   2]+0.005*[#   3]
          +0.005*[#   4]+0.002*[#   1]
    |psi|^2 = 0.985
==== e(  13) =    -0.85730 eV ==== 
     psi = 0.174*[#  12]+0.174*[#  13]+0.174*[#  16]+0.174*[#  17]+0.116*[#   6]
          +0.116*[#   7]+0.023*[#   8]+0.023*[#   9]+0.002*[#  11]+0.002*[#  15]
          +0.002*[#   2]+0.002*[#   3]+0.002*[#   4]+0.001*[#  10]+0.001*[#  14]
          
    |psi|^2 = 0.990
==== e(  14) =     1.32838 eV ==== 
     psi = 0.412*[#   1]+0.128*[#   2]+0.045*[#   3]+0.045*[#   4]+0.041*[#  12]
          +0.041*[#  13]+0.041*[#  16]+0.041*[#  17]+0.021*[#  10]+0.021*[#  14]
          +0.006*[#   8]+0.006*[#   9]+0.005*[#  11]+0.005*[#  15]
    |psi|^2 = 0.859
==== e(  15) =     3.05462 eV ==== 
     psi = 0.166*[#   2]+0.112*[#   3]+0.112*[#   4]+0.066*[#  10]+0.066*[#  14]
          +0.062*[#   1]+0.024*[#  11]+0.024*[#  15]+0.018*[#  12]+0.018*[#  13]
          +0.018*[#  16]+0.018*[#  17]+0.002*[#   8]+0.002*[#   9]+0.001*[#   6]
          +0.001*[#   7]
    |psi|^2 = 0.710

 k =   0.0250000000 -0.3608439182 -0.0621166667
==== e(   1) =   -16.70365 eV ==== 
     psi = 0.312*[#  10]+0.312*[#  14]+0.120*[#   3]+0.120*[#   4]+0.093*[#   1]
          +0.007*[#  11]+0.007*[#  15]+0.004*[#   8]+0.004*[#   9]+0.003*[#   6]
          +0.003*[#   7]+0.003*[#  12]+0.003*[#  13]+0.003*[#  16]+0.003*[#  17]
          +0.002*[#   5]
    |psi|^2 = 0.999
==== e(   2) =   -15.83884 eV ==== 
     psi = 0.398*[#  10]+0.398*[#  14]+0.095*[#   2]+0.027*[#   6]+0.027*[#   7]
          +0.019*[#   8]+0.019*[#   9]+0.009*[#   3]+0.009*[#   4]
    |psi|^2 = 0.999
==== e(   3) =    -8.81185 eV ==== 
     psi = 0.154*[#   8]+0.154*[#   9]+0.088*[#  12]+0.088*[#  13]+0.088*[#  16]
          +0.088*[#  17]+0.072*[#   1]+0.066*[#  11]+0.066*[#  15]+0.023*[#   6]
          +0.023*[#   7]+0.022*[#   2]+0.021*[#  10]+0.021*[#  14]+0.013*[#   5]
          +0.002*[#   3]+0.002*[#   4]
    |psi|^2 = 0.993
==== e(   4) =    -8.27219 eV ==== 
     psi = 0.215*[#   6]+0.215*[#   7]+0.118*[#   8]+0.118*[#   9]+0.076*[#  12]
          +0.076*[#  13]+0.076*[#  16]+0.076*[#  17]+0.004*[#  11]+0.004*[#  15]
          +0.004*[#   2]+0.003*[#   1]+0.003*[#   3]+0.003*[#   4]+0.002*[#  10]
          +0.002*[#  14]
    |psi|^2 = 0.996
==== e(   5) =    -8.11050 eV ==== 
     psi = 0.106*[#   6]+0.106*[#   7]+0.087*[#  12]+0.087*[#  13]+0.087*[#  16]
          +0.087*[#  17]+0.069*[#   8]+0.069*[#   9]+0.061*[#  11]+0.061*[#  15]
          +0.056*[#   1]+0.040*[#   2]+0.028*[#  10]+0.028*[#  14]+0.007*[#   5]
          +0.006*[#   3]+0.006*[#   4]
    |psi|^2 = 0.994
==== e(   6) =    -7.40627 eV ==== 
     psi = 0.509*[#   5]+0.150*[#  11]+0.150*[#  15]+0.027*[#  12]+0.027*[#  13]
          +0.027*[#  16]+0.027*[#  17]+0.027*[#   6]+0.027*[#   7]+0.007*[#   1]
          +0.007*[#  10]+0.007*[#  14]+0.002*[#   3]+0.002*[#   4]
    |psi|^2 = 0.997
==== e(   7) =    -6.53304 eV ==== 
     psi = 0.218*[#   8]+0.218*[#   9]+0.157*[#   6]+0.157*[#   7]+0.055*[#  12]
          +0.055*[#  13]+0.055*[#  16]+0.055*[#  17]+0.009*[#   3]+0.009*[#   4]
          +0.006*[#   5]+0.002*[#   1]
    |psi|^2 = 0.997
==== e(   8) =    -5.78083 eV ==== 
     psi = 0.202*[#   6]+0.202*[#   7]+0.100*[#   1]+0.098*[#   8]+0.098*[#   9]
          +0.064*[#   5]+0.039*[#  11]+0.039*[#  15]+0.026*[#  12]+0.026*[#  13]
          +0.026*[#  16]+0.026*[#  17]+0.021*[#  10]+0.021*[#  14]+0.008*[#   2]
          
    |psi|^2 = 0.993
==== e(   9) =    -4.65844 eV ==== 
     psi = 0.237*[#   5]+0.092*[#  11]+0.092*[#  15]+0.080*[#  12]+0.080*[#  13]
          +0.080*[#  16]+0.080*[#  17]+0.076*[#   8]+0.076*[#   9]+0.018*[#  10]
          +0.018*[#  14]+0.017*[#   2]+0.012*[#   3]+0.012*[#   4]+0.010*[#   6]
          +0.010*[#   7]+0.007*[#   1]
    |psi|^2 = 0.995
==== e(  10) =    -4.23593 eV ==== 
     psi = 0.159*[#  12]+0.159*[#  13]+0.159*[#  16]+0.159*[#  17]+0.100*[#   8]
          +0.100*[#   9]+0.033*[#   3]+0.033*[#   4]+0.029*[#   5]+0.020*[#  11]
          +0.020*[#  15]+0.013*[#   6]+0.013*[#   7]
    |psi|^2 = 0.997
==== e(  11) =    -3.89851 eV ==== 
     psi = 0.266*[#  11]+0.266*[#  15]+0.105*[#   5]+0.063*[#  12]+0.063*[#  13]
          +0.063*[#  16]+0.063*[#  17]+0.031*[#   6]+0.031*[#   7]+0.015*[#   8]
          +0.015*[#   9]+0.003*[#  10]+0.003*[#  14]+0.002*[#   1]+0.002*[#   2]
          +0.002*[#   3]+0.002*[#   4]
    |psi|^2 = 0.995
==== e(  12) =    -1.83197 eV ==== 
     psi = 0.229*[#  11]+0.229*[#  15]+0.080*[#   8]+0.080*[#   9]+0.066*[#   6]
          +0.066*[#   7]+0.032*[#  10]+0.032*[#  14]+0.032*[#   2]+0.026*[#  12]
          +0.026*[#  13]+0.026*[#  16]+0.026*[#  17]+0.022*[#   5]+0.006*[#   3]
          +0.006*[#   4]+0.001*[#   1]
    |psi|^2 = 0.985
==== e(  13) =    -0.90690 eV ==== 
     psi = 0.175*[#  12]+0.175*[#  13]+0.175*[#  16]+0.175*[#  17]+0.106*[#   6]
          +0.106*[#   7]+0.031*[#   8]+0.031*[#   9]+0.004*[#   3]+0.004*[#   4]
          +0.002*[#   2]+0.001*[#   1]+0.001*[#  10]+0.001*[#  11]+0.001*[#  14]
          +0.001*[#  15]
    |psi|^2 = 0.990
==== e(  14) =     1.56679 eV ==== 
     psi = 0.396*[#   1]+0.163*[#   2]+0.069*[#   3]+0.069*[#   4]+0.032*[#  12]
          +0.032*[#  13]+0.032*[#  16]+0.032*[#  17]+0.024*[#  10]+0.024*[#  14]
          +0.004*[#  11]+0.004*[#  15]+0.003*[#   8]+0.003*[#   9]+0.001*[#   6]
          +0.001*[#   7]
    |psi|^2 = 0.889
==== e(  15) =     3.00904 eV ==== 
     psi = 0.088*[#   1]+0.071*[#   3]+0.071*[#   4]+0.051*[#   2]+0.047*[#  10]
          +0.047*[#  14]+0.020*[#  11]+0.020*[#  15]+0.019*[#  12]+0.019*[#  13]
          +0.019*[#  16]+0.019*[#  17]+0.002*[#   8]+0.002*[#   9]+0.002*[#   6]
          +0.002*[#   7]
    |psi|^2 = 0.499

 k =   0.0250000000 -0.3031088913 -0.0621166667
==== e(   1) =   -16.92946 eV ==== 
     psi = 0.302*[#  10]+0.302*[#  14]+0.123*[#   1]+0.117*[#   3]+0.117*[#   4]
          +0.008*[#  11]+0.008*[#  15]+0.003*[#  12]+0.003*[#  13]+0.003*[#  16]
          +0.003*[#  17]+0.003*[#   5]+0.002*[#   8]+0.002*[#   9]+0.001*[#   6]
          +0.001*[#   7]
    |psi|^2 = 0.999
==== e(   2) =   -15.81452 eV ==== 
     psi = 0.393*[#  10]+0.393*[#  14]+0.132*[#   2]+0.023*[#   6]+0.023*[#   7]
          +0.015*[#   8]+0.015*[#   9]+0.003*[#   3]+0.003*[#   4]
    |psi|^2 = 0.999
==== e(   3) =    -8.67734 eV ==== 
     psi = 0.227*[#   8]+0.227*[#   9]+0.075*[#  12]+0.075*[#  13]+0.075*[#  16]
          +0.075*[#  17]+0.066*[#  11]+0.066*[#  15]+0.044*[#   2]+0.018*[#   1]
          +0.017*[#   5]+0.010*[#  10]+0.010*[#  14]+0.004*[#   3]+0.004*[#   4]
          
    |psi|^2 = 0.992
==== e(   4) =    -8.33197 eV ==== 
     psi = 0.187*[#   6]+0.187*[#   7]+0.158*[#   8]+0.158*[#   9]+0.075*[#  12]
          +0.075*[#  13]+0.075*[#  16]+0.075*[#  17]+0.002*[#   3]+0.002*[#   4]
          
    |psi|^2 = 0.996
==== e(   5) =    -8.09139 eV ==== 
     psi = 0.151*[#   5]+0.149*[#  11]+0.149*[#  15]+0.079*[#   6]+0.079*[#   7]
          +0.060*[#   1]+0.048*[#  12]+0.048*[#  13]+0.048*[#  16]+0.048*[#  17]
          +0.046*[#  10]+0.046*[#  14]+0.014*[#   2]+0.013*[#   8]+0.013*[#   9]
          +0.002*[#   3]+0.002*[#   4]
    |psi|^2 = 0.995
==== e(   6) =    -7.43786 eV ==== 
     psi = 0.341*[#   5]+0.115*[#   6]+0.115*[#   7]+0.065*[#  11]+0.065*[#  15]
          +0.063*[#  12]+0.063*[#  13]+0.063*[#  16]+0.063*[#  17]+0.028*[#   1]
          +0.003*[#   8]+0.003*[#   9]+0.003*[#  10]+0.003*[#  14]+0.001*[#   2]
          
    |psi|^2 = 0.997
==== e(   7) =    -6.59501 eV ==== 
     psi = 0.205*[#   6]+0.205*[#   7]+0.192*[#   8]+0.192*[#   9]+0.046*[#  12]
          +0.046*[#  13]+0.046*[#  16]+0.046*[#  17]+0.006*[#   3]+0.006*[#   4]
          +0.004*[#   5]+0.002*[#   1]
    |psi|^2 = 0.996
==== e(   8) =    -5.73636 eV ==== 
     psi = 0.178*[#   6]+0.178*[#   7]+0.128*[#   5]+0.105*[#   1]+0.082*[#   8]
          +0.082*[#   9]+0.034*[#  11]+0.034*[#  15]+0.029*[#  12]+0.029*[#  13]
          +0.029*[#  16]+0.029*[#  17]+0.025*[#  10]+0.025*[#  14]+0.004*[#   2]
          
    |psi|^2 = 0.994
==== e(   9) =    -4.18721 eV ==== 
     psi = 0.242*[#   5]+0.116*[#  11]+0.116*[#  15]+0.081*[#  12]+0.081*[#  13]
          +0.081*[#  16]+0.081*[#  17]+0.069*[#   8]+0.069*[#   9]+0.012*[#   2]
          +0.010*[#  10]+0.010*[#  14]+0.010*[#   3]+0.010*[#   4]+0.006*[#   1]
          
    |psi|^2 = 0.994
==== e(  10) =    -3.94041 eV ==== 
     psi = 0.167*[#  12]+0.167*[#  13]+0.167*[#  16]+0.167*[#  17]+0.083*[#   8]
          +0.083*[#   9]+0.030*[#   3]+0.030*[#   4]+0.028*[#   5]+0.023*[#  11]
          +0.023*[#  15]+0.014*[#   6]+0.014*[#   7]
    |psi|^2 = 0.997
==== e(  11) =    -3.69193 eV ==== 
     psi = 0.290*[#  11]+0.290*[#  15]+0.071*[#  12]+0.071*[#  13]+0.071*[#  16]
          +0.071*[#  17]+0.058*[#   5]+0.022*[#   6]+0.022*[#   7]+0.011*[#   8]
          +0.011*[#   9]+0.003*[#   3]+0.003*[#   4]+0.002*[#  10]+0.002*[#  14]
          
    |psi|^2 = 0.995
==== e(  12) =    -2.07921 eV ==== 
     psi = 0.171*[#  11]+0.171*[#  15]+0.085*[#   8]+0.085*[#   9]+0.067*[#   6]
          +0.067*[#   7]+0.057*[#   2]+0.042*[#  12]+0.042*[#  13]+0.042*[#  16]
          +0.042*[#  17]+0.039*[#  10]+0.039*[#  14]+0.020*[#   5]+0.007*[#   3]
          +0.007*[#   4]
    |psi|^2 = 0.986
==== e(  13) =    -0.93580 eV ==== 
     psi = 0.175*[#  12]+0.175*[#  13]+0.175*[#  16]+0.175*[#  17]+0.093*[#   6]
          +0.093*[#   7]+0.042*[#   8]+0.042*[#   9]+0.005*[#   3]+0.005*[#   4]
          +0.002*[#   2]+0.001*[#   1]+0.001*[#  10]+0.001*[#  14]
    |psi|^2 = 0.990
==== e(  14) =     1.91223 eV ==== 
     psi = 0.352*[#   1]+0.186*[#   2]+0.095*[#   3]+0.095*[#   4]+0.026*[#  10]
          +0.026*[#  14]+0.023*[#  12]+0.023*[#  13]+0.023*[#  16]+0.023*[#  17]
          +0.007*[#  11]+0.007*[#  15]+0.002*[#   5]
    |psi|^2 = 0.889
==== e(  15) =     2.70562 eV ==== 
     psi = 0.095*[#   1]+0.051*[#   3]+0.051*[#   4]+0.037*[#  10]+0.037*[#  14]
          +0.018*[#  11]+0.018*[#  12]+0.018*[#  13]+0.018*[#  15]+0.018*[#  16]
          +0.018*[#  17]+0.003*[#   2]+0.002*[#   6]+0.002*[#   7]
    |psi|^2 = 0.385

 k =   0.0250000000 -0.2453738644 -0.0621166667
==== e(   1) =   -17.14067 eV ==== 
     psi = 0.298*[#  10]+0.298*[#  14]+0.159*[#   1]+0.103*[#   3]+0.103*[#   4]
          +0.010*[#  11]+0.010*[#  15]+0.003*[#   5]+0.003*[#  12]+0.003*[#  13]
          +0.003*[#  16]+0.003*[#  17]
    |psi|^2 = 0.999
==== e(   2) =   -15.79294 eV ==== 
     psi = 0.387*[#  10]+0.387*[#  14]+0.167*[#   2]+0.017*[#   6]+0.017*[#   7]
          +0.011*[#   8]+0.011*[#   9]
    |psi|^2 = 0.999
==== e(   3) =    -8.67487 eV ==== 
     psi = 0.244*[#   8]+0.244*[#   9]+0.073*[#  12]+0.073*[#  13]+0.073*[#  16]
          +0.073*[#  17]+0.048*[#  11]+0.048*[#  15]+0.045*[#   2]+0.022*[#   6]
          +0.022*[#   7]+0.010*[#   5]+0.004*[#  10]+0.004*[#  14]+0.003*[#   1]
          +0.003*[#   3]+0.003*[#   4]
    |psi|^2 = 0.993
==== e(   4) =    -8.41649 eV ==== 
     psi = 0.196*[#   8]+0.196*[#   9]+0.151*[#   6]+0.151*[#   7]+0.074*[#  12]
          +0.074*[#  13]+0.074*[#  16]+0.074*[#  17]+0.002*[#   3]+0.002*[#   4]
          
    |psi|^2 = 0.995
==== e(   5) =    -8.17292 eV ==== 
     psi = 0.339*[#   5]+0.222*[#  11]+0.222*[#  15]+0.043*[#  10]+0.043*[#  14]
          +0.030*[#   1]+0.022*[#   6]+0.022*[#   7]+0.011*[#  12]+0.011*[#  13]
          +0.011*[#  16]+0.011*[#  17]+0.003*[#   2]+0.002*[#   8]+0.002*[#   9]
          
    |psi|^2 = 0.995
==== e(   6) =    -7.17032 eV ==== 
     psi = 0.222*[#   6]+0.222*[#   7]+0.129*[#   5]+0.074*[#  12]+0.074*[#  13]
          +0.074*[#  16]+0.074*[#  17]+0.039*[#   1]+0.027*[#   8]+0.027*[#   9]
          +0.008*[#  10]+0.008*[#  14]+0.007*[#  11]+0.007*[#  15]+0.001*[#   2]
          
    |psi|^2 = 0.996
==== e(   7) =    -6.58855 eV ==== 
     psi = 0.252*[#   6]+0.252*[#   7]+0.168*[#   8]+0.168*[#   9]+0.036*[#  12]
          +0.036*[#  13]+0.036*[#  16]+0.036*[#  17]+0.004*[#   3]+0.004*[#   4]
          +0.003*[#   5]+0.001*[#   1]
    |psi|^2 = 0.996
==== e(   8) =    -5.62609 eV ==== 
     psi = 0.199*[#   5]+0.130*[#   6]+0.130*[#   7]+0.114*[#   1]+0.062*[#   8]
          +0.062*[#   9]+0.040*[#  12]+0.040*[#  13]+0.040*[#  16]+0.040*[#  17]
          +0.037*[#  11]+0.037*[#  15]+0.031*[#  10]+0.031*[#  14]+0.002*[#   2]
          
    |psi|^2 = 0.995
==== e(   9) =    -3.84424 eV ==== 
     psi = 0.278*[#   5]+0.132*[#  11]+0.132*[#  15]+0.080*[#  12]+0.080*[#  13]
          +0.080*[#  16]+0.080*[#  17]+0.050*[#   8]+0.050*[#   9]+0.006*[#   2]
          +0.005*[#   3]+0.005*[#   4]+0.004*[#   1]+0.003*[#   6]+0.003*[#   7]
          +0.003*[#  10]+0.003*[#  14]
    |psi|^2 = 0.993
==== e(  10) =    -3.70978 eV ==== 
     psi = 0.183*[#  12]+0.183*[#  13]+0.183*[#  16]+0.183*[#  17]+0.063*[#   8]
          +0.063*[#   9]+0.028*[#   3]+0.028*[#   4]+0.023*[#  11]+0.023*[#  15]
          +0.014*[#   6]+0.014*[#   7]+0.009*[#   5]
    |psi|^2 = 0.997
==== e(  11) =    -3.58013 eV ==== 
     psi = 0.361*[#  11]+0.361*[#  15]+0.057*[#  12]+0.057*[#  13]+0.057*[#  16]
          +0.057*[#  17]+0.008*[#   8]+0.008*[#   9]+0.007*[#   6]+0.007*[#   7]
          +0.005*[#   5]+0.003*[#   2]+0.002*[#   3]+0.002*[#   4]
    |psi|^2 = 0.994
==== e(  12) =    -2.11848 eV ==== 
     psi = 0.093*[#   8]+0.093*[#   9]+0.081*[#  12]+0.081*[#  13]+0.081*[#  16]
          +0.081*[#  17]+0.080*[#   2]+0.072*[#  11]+0.072*[#  15]+0.067*[#   6]
          +0.067*[#   7]+0.044*[#  10]+0.044*[#  14]+0.013*[#   5]+0.008*[#   3]
          +0.008*[#   4]
    |psi|^2 = 0.985
==== e(  13) =    -0.91770 eV ==== 
     psi = 0.174*[#  12]+0.174*[#  13]+0.174*[#  16]+0.174*[#  17]+0.078*[#   6]
          +0.078*[#   7]+0.058*[#   8]+0.058*[#   9]+0.007*[#   3]+0.007*[#   4]
          +0.001*[#   2]+0.001*[#   1]+0.001*[#  10]+0.001*[#  14]
    |psi|^2 = 0.989
==== e(  14) =     2.24774 eV ==== 
     psi = 0.144*[#   3]+0.144*[#   4]+0.132*[#   2]+0.040*[#  10]+0.040*[#  14]
          +0.036*[#   1]+0.004*[#  11]+0.004*[#  15]+0.002*[#   5]+0.001*[#  12]
          +0.001*[#  13]+0.001*[#  16]+0.001*[#  17]
    |psi|^2 = 0.553
==== e(  15) =     2.38510 eV ==== 
     psi = 0.306*[#   1]+0.093*[#   2]+0.029*[#  12]+0.029*[#  13]+0.029*[#  16]
          +0.029*[#  17]+0.029*[#  10]+0.029*[#  14]+0.027*[#  11]+0.027*[#  15]
          +0.002*[#   6]+0.002*[#   7]
    |psi|^2 = 0.635

 k =   0.0250000000 -0.1876388375 -0.0621166667
==== e(   1) =   -17.32202 eV ==== 
     psi = 0.300*[#  10]+0.300*[#  14]+0.203*[#   1]+0.079*[#   3]+0.079*[#   4]
          +0.012*[#  11]+0.012*[#  15]+0.004*[#   5]+0.002*[#  12]+0.002*[#  13]
          +0.002*[#  16]+0.002*[#  17]
    |psi|^2 = 0.999
==== e(   2) =   -15.77493 eV ==== 
     psi = 0.381*[#  10]+0.381*[#  14]+0.200*[#   2]+0.011*[#   6]+0.011*[#   7]
          +0.007*[#   8]+0.007*[#   9]
    |psi|^2 = 0.999
==== e(   3) =    -8.68648 eV ==== 
     psi = 0.249*[#   8]+0.249*[#   9]+0.073*[#  12]+0.073*[#  13]+0.073*[#  16]
          +0.073*[#  17]+0.047*[#   6]+0.047*[#   7]+0.033*[#   2]+0.030*[#  11]
          +0.030*[#  15]+0.005*[#   5]+0.002*[#  10]+0.002*[#  14]+0.002*[#   3]
          +0.002*[#   4]
    |psi|^2 = 0.993
==== e(   4) =    -8.50760 eV ==== 
     psi = 0.223*[#   8]+0.223*[#   9]+0.124*[#   6]+0.124*[#   7]+0.074*[#  12]
          +0.074*[#  13]+0.074*[#  16]+0.074*[#  17]+0.001*[#   3]+0.001*[#   4]
          
    |psi|^2 = 0.995
==== e(   5) =    -8.32259 eV ==== 
     psi = 0.395*[#   5]+0.238*[#  11]+0.238*[#  15]+0.039*[#  10]+0.039*[#  14]
          +0.018*[#   1]+0.006*[#   6]+0.006*[#   7]+0.003*[#  12]+0.003*[#  13]
          +0.003*[#  16]+0.003*[#  17]
    |psi|^2 = 0.995
==== e(   6) =    -6.81997 eV ==== 
     psi = 0.295*[#   6]+0.295*[#   7]+0.065*[#   8]+0.065*[#   9]+0.048*[#  12]
          +0.048*[#  13]+0.048*[#  16]+0.048*[#  17]+0.044*[#   5]+0.020*[#   1]
          +0.006*[#  10]+0.006*[#  14]
    |psi|^2 = 0.995
==== e(   7) =    -6.53520 eV ==== 
     psi = 0.293*[#   6]+0.293*[#   7]+0.151*[#   8]+0.151*[#   9]+0.025*[#  12]
          +0.025*[#  13]+0.025*[#  16]+0.025*[#  17]+0.002*[#   5]+0.002*[#   3]
          +0.002*[#   4]+0.001*[#   1]
    |psi|^2 = 0.995
==== e(   8) =    -5.42824 eV ==== 
     psi = 0.283*[#   5]+0.123*[#   1]+0.068*[#   6]+0.068*[#   7]+0.052*[#  12]
          +0.052*[#  13]+0.052*[#  16]+0.052*[#  17]+0.051*[#  11]+0.051*[#  15]
          +0.036*[#  10]+0.036*[#  14]+0.036*[#   8]+0.036*[#   9]
    |psi|^2 = 0.996
==== e(   9) =    -3.68767 eV ==== 
     psi = 0.240*[#  11]+0.240*[#  15]+0.157*[#   5]+0.063*[#  12]+0.063*[#  13]
          +0.063*[#  16]+0.063*[#  17]+0.033*[#   8]+0.033*[#   9]+0.017*[#   2]
          +0.005*[#   6]+0.005*[#   7]+0.004*[#  10]+0.004*[#  14]+0.002*[#   3]
          +0.002*[#   4]+0.001*[#   1]
    |psi|^2 = 0.995
==== e(  10) =    -3.62503 eV ==== 
     psi = 0.313*[#  11]+0.313*[#  15]+0.087*[#   5]+0.063*[#  12]+0.063*[#  13]
          +0.063*[#  16]+0.063*[#  17]+0.008*[#   2]+0.003*[#   3]+0.003*[#   4]
          +0.003*[#   8]+0.003*[#   9]+0.002*[#   6]+0.002*[#   7]+0.002*[#   1]
          +0.001*[#  10]+0.001*[#  14]
    |psi|^2 = 0.994
==== e(  11) =    -3.55767 eV ==== 
     psi = 0.206*[#  12]+0.206*[#  13]+0.206*[#  16]+0.206*[#  17]+0.044*[#   8]
          +0.044*[#   9]+0.027*[#   3]+0.027*[#   4]+0.014*[#   6]+0.014*[#   7]
          
    |psi|^2 = 0.997
==== e(  12) =    -1.82074 eV ==== 
     psi = 0.120*[#  12]+0.120*[#  13]+0.120*[#  16]+0.120*[#  17]+0.096*[#   8]
          +0.096*[#   9]+0.079*[#   2]+0.056*[#   6]+0.056*[#   7]+0.038*[#  10]
          +0.038*[#  14]+0.012*[#  11]+0.012*[#  15]+0.007*[#   3]+0.007*[#   4]
          +0.004*[#   5]
    |psi|^2 = 0.981
==== e(  13) =    -0.83731 eV ==== 
     psi = 0.173*[#  12]+0.173*[#  13]+0.173*[#  16]+0.173*[#  17]+0.075*[#   8]
          +0.075*[#   9]+0.064*[#   6]+0.064*[#   7]+0.008*[#   3]+0.008*[#   4]
          
    |psi|^2 = 0.989
==== e(  14) =     1.91863 eV ==== 
     psi = 0.100*[#   1]+0.076*[#   3]+0.076*[#   4]+0.051*[#  10]+0.051*[#  14]
          +0.023*[#  11]+0.023*[#  15]+0.011*[#  12]+0.011*[#  13]+0.011*[#  16]
          +0.011*[#  17]+0.004*[#   2]
    |psi|^2 = 0.452
==== e(  15) =     2.35012 eV ==== 
     psi = 0.091*[#   2]+0.009*[#  10]+0.009*[#  14]+0.006*[#   1]+0.006*[#  11]
          +0.006*[#  15]+0.001*[#   3]+0.001*[#   4]+0.001*[#  12]+0.001*[#  13]
          +0.001*[#  16]+0.001*[#  17]
    |psi|^2 = 0.135

 k =   0.0250000000 -0.1299038106 -0.0621166667
==== e(   1) =   -17.46266 eV ==== 
     psi = 0.307*[#  10]+0.307*[#  14]+0.250*[#   1]+0.049*[#   3]+0.049*[#   4]
          +0.013*[#  11]+0.013*[#  15]+0.005*[#   5]+0.002*[#  12]+0.002*[#  13]
          +0.002*[#  16]+0.002*[#  17]
    |psi|^2 = 0.999
==== e(   2) =   -15.76127 eV ==== 
     psi = 0.377*[#  10]+0.377*[#  14]+0.226*[#   2]+0.006*[#   6]+0.006*[#   7]
          +0.004*[#   8]+0.004*[#   9]
    |psi|^2 = 0.999
==== e(   3) =    -8.68615 eV ==== 
     psi = 0.254*[#   8]+0.254*[#   9]+0.073*[#  12]+0.073*[#  13]+0.073*[#  16]
          +0.073*[#  17]+0.068*[#   6]+0.068*[#   7]+0.019*[#   2]+0.016*[#  11]
          +0.016*[#  15]+0.002*[#   5]
    |psi|^2 = 0.994
==== e(   4) =    -8.58716 eV ==== 
     psi = 0.242*[#   8]+0.242*[#   9]+0.106*[#   6]+0.106*[#   7]+0.073*[#  12]
          +0.073*[#  13]+0.073*[#  16]+0.073*[#  17]+0.001*[#   5]
    |psi|^2 = 0.995
==== e(   5) =    -8.45561 eV ==== 
     psi = 0.410*[#   5]+0.242*[#  11]+0.242*[#  15]+0.038*[#  10]+0.038*[#  14]
          +0.013*[#   1]+0.002*[#   6]+0.002*[#   7]+0.001*[#   8]+0.001*[#   9]
          +0.001*[#  12]+0.001*[#  13]+0.001*[#  16]+0.001*[#  17]
    |psi|^2 = 0.995
==== e(   6) =    -6.56129 eV ==== 
     psi = 0.343*[#   6]+0.343*[#   7]+0.102*[#   8]+0.102*[#   9]+0.020*[#  12]
          +0.020*[#  13]+0.020*[#  16]+0.020*[#  17]+0.009*[#   5]+0.005*[#   1]
          +0.002*[#  10]+0.002*[#  14]
    |psi|^2 = 0.994
==== e(   7) =    -6.46212 eV ==== 
     psi = 0.325*[#   6]+0.325*[#   7]+0.141*[#   8]+0.141*[#   9]+0.014*[#  12]
          +0.014*[#  13]+0.014*[#  16]+0.014*[#  17]+0.002*[#   5]
    |psi|^2 = 0.995
==== e(   8) =    -5.14820 eV ==== 
     psi = 0.377*[#   5]+0.118*[#   1]+0.078*[#  11]+0.078*[#  15]+0.051*[#  12]
          +0.051*[#  13]+0.051*[#  16]+0.051*[#  17]+0.038*[#  10]+0.038*[#  14]
          +0.020*[#   6]+0.020*[#   7]+0.012*[#   8]+0.012*[#   9]
    |psi|^2 = 0.995
==== e(   9) =    -3.82529 eV ==== 
     psi = 0.439*[#  11]+0.439*[#  15]+0.047*[#   2]+0.010*[#  10]+0.010*[#  14]
          +0.009*[#   8]+0.009*[#   9]+0.008*[#  12]+0.008*[#  13]+0.008*[#  16]
          +0.008*[#  17]+0.002*[#   5]
    |psi|^2 = 0.997
==== e(  10) =    -3.56256 eV ==== 
     psi = 0.169*[#   5]+0.146*[#  12]+0.146*[#  13]+0.146*[#  16]+0.146*[#  17]
          +0.091*[#  11]+0.091*[#  15]+0.014*[#   8]+0.014*[#   9]+0.007*[#   6]
          +0.007*[#   7]+0.006*[#   3]+0.006*[#   4]+0.002*[#   1]
    |psi|^2 = 0.993
==== e(  11) =    -3.48954 eV ==== 
     psi = 0.221*[#  12]+0.221*[#  13]+0.221*[#  16]+0.221*[#  17]+0.024*[#   3]
          +0.024*[#   4]+0.022*[#   8]+0.022*[#   9]+0.010*[#   6]+0.010*[#   7]
          +0.001*[#  11]+0.001*[#  15]
    |psi|^2 = 0.997
==== e(  12) =    -1.32641 eV ==== 
     psi = 0.142*[#  12]+0.142*[#  13]+0.142*[#  16]+0.142*[#  17]+0.095*[#   8]
          +0.095*[#   9]+0.063*[#   2]+0.046*[#   6]+0.046*[#   7]+0.026*[#  10]
          +0.026*[#  14]+0.005*[#   3]+0.005*[#   4]+0.001*[#  11]+0.001*[#  15]
          
    |psi|^2 = 0.979
==== e(  13) =    -0.70852 eV ==== 
     psi = 0.173*[#  12]+0.173*[#  13]+0.173*[#  16]+0.173*[#  17]+0.089*[#   8]
          +0.089*[#   9]+0.053*[#   6]+0.053*[#   7]+0.007*[#   3]+0.007*[#   4]
          
    |psi|^2 = 0.990
==== e(  14) =     1.53057 eV ==== 
     psi = 0.196*[#   1]+0.061*[#  10]+0.061*[#  14]+0.058*[#   3]+0.058*[#   4]
          +0.036*[#  11]+0.036*[#  15]+0.010*[#  12]+0.010*[#  13]+0.010*[#  16]
          +0.010*[#  17]+0.001*[#   5]
    |psi|^2 = 0.546
==== e(  15) =     2.16786 eV ==== 
[...]
    |psi|^2 = 0.995
==== e(  11) =    -4.61635 eV ==== 
     psi = 0.160*[#  11]+0.160*[#  15]+0.081*[#   6]+0.081*[#   7]+0.078*[#  12]
          +0.078*[#  13]+0.078*[#  16]+0.078*[#  17]+0.065*[#   8]+0.065*[#   9]
          +0.018*[#   3]+0.018*[#   4]+0.010*[#   1]+0.009*[#   2]+0.007*[#  10]
          +0.007*[#  14]+0.002*[#   5]
    |psi|^2 = 0.996
==== e(  12) =    -1.20300 eV ==== 
     psi = 0.134*[#  11]+0.134*[#  15]+0.103*[#   6]+0.103*[#   7]+0.090*[#  12]
          +0.090*[#  13]+0.090*[#  16]+0.090*[#  17]+0.042*[#   8]+0.042*[#   9]
          +0.014*[#  10]+0.014*[#  14]+0.014*[#   5]+0.005*[#   3]+0.005*[#   4]
          +0.005*[#   1]+0.003*[#   2]
    |psi|^2 = 0.978
==== e(  13) =    -1.10298 eV ==== 
     psi = 0.125*[#  11]+0.125*[#  15]+0.106*[#   6]+0.106*[#   7]+0.096*[#  12]
          +0.096*[#  13]+0.096*[#  16]+0.096*[#  17]+0.042*[#   8]+0.042*[#   9]
          +0.014*[#  10]+0.014*[#  14]+0.010*[#   5]+0.006*[#   2]+0.003*[#   3]
          +0.003*[#   4]+0.002*[#   1]
    |psi|^2 = 0.981
==== e(  14) =     1.46868 eV ==== 
     psi = 0.427*[#   1]+0.059*[#  12]+0.059*[#  13]+0.059*[#  16]+0.059*[#  17]
          +0.021*[#  11]+0.021*[#  15]+0.013*[#   8]+0.013*[#   9]+0.011*[#  10]
          +0.011*[#  14]+0.006*[#   2]+0.003*[#   3]+0.003*[#   4]
    |psi|^2 = 0.764
==== e(  15) =     3.20972 eV ==== 
     psi = 0.330*[#   2]+0.140*[#   3]+0.140*[#   4]+0.063*[#  10]+0.063*[#  14]
          +0.016*[#  11]+0.016*[#  15]+0.014*[#  12]+0.014*[#  13]+0.014*[#  16]
          +0.014*[#  17]+0.002*[#   1]+0.002*[#   6]+0.002*[#   7]
    |psi|^2 = 0.831

 k =   0.4250000000 -0.3031088913 -0.0621166667
==== e(   1) =   -16.17816 eV ==== 
     psi = 0.377*[#  10]+0.377*[#  14]+0.046*[#   3]+0.046*[#   4]+0.043*[#   1]
          +0.027*[#   6]+0.027*[#   7]+0.023*[#   8]+0.023*[#   9]+0.002*[#  11]
          +0.002*[#  15]+0.002*[#  12]+0.002*[#  13]+0.002*[#  16]+0.002*[#  17]
          
    |psi|^2 = 0.999
==== e(   2) =   -15.91946 eV ==== 
     psi = 0.380*[#  10]+0.380*[#  14]+0.084*[#   3]+0.084*[#   4]+0.021*[#   2]
          +0.013*[#   6]+0.013*[#   7]+0.010*[#   8]+0.010*[#   9]+0.002*[#  11]
          +0.002*[#  15]+0.002*[#   1]
    |psi|^2 = 1.000
==== e(   3) =    -9.55526 eV ==== 
     psi = 0.171*[#   1]+0.124*[#  12]+0.124*[#  13]+0.124*[#  16]+0.124*[#  17]
          +0.076*[#   6]+0.076*[#   7]+0.044*[#   8]+0.044*[#   9]+0.029*[#  11]
          +0.029*[#  15]+0.011*[#  10]+0.011*[#  14]
    |psi|^2 = 0.991
==== e(   4) =    -8.21588 eV ==== 
     psi = 0.279*[#   6]+0.279*[#   7]+0.077*[#  12]+0.077*[#  13]+0.077*[#  16]
          +0.077*[#  17]+0.057*[#   8]+0.057*[#   9]+0.004*[#   3]+0.004*[#   4]
          +0.002*[#  11]+0.002*[#  15]+0.001*[#   2]
    |psi|^2 = 0.996
==== e(   5) =    -7.62250 eV ==== 
     psi = 0.147*[#   8]+0.147*[#   9]+0.090*[#  11]+0.090*[#  15]+0.081*[#   5]
          +0.068*[#  12]+0.068*[#  13]+0.068*[#  16]+0.068*[#  17]+0.042*[#   2]
          +0.032*[#   1]+0.018*[#  10]+0.018*[#  14]+0.017*[#   6]+0.017*[#   7]
          +0.012*[#   3]+0.012*[#   4]
    |psi|^2 = 0.994
==== e(   6) =    -7.16067 eV ==== 
     psi = 0.234*[#   5]+0.125*[#  11]+0.125*[#  15]+0.074*[#  12]+0.074*[#  13]
          +0.074*[#  16]+0.074*[#  17]+0.045*[#   8]+0.045*[#   9]+0.038*[#   2]
          +0.021*[#   3]+0.021*[#   4]+0.017*[#  10]+0.017*[#  14]+0.010*[#   1]
          
    |psi|^2 = 0.993
==== e(   7) =    -6.10529 eV ==== 
     psi = 0.177*[#   8]+0.177*[#   9]+0.118*[#   6]+0.118*[#   7]+0.073*[#  12]
          +0.073*[#  13]+0.073*[#  16]+0.073*[#  17]+0.023*[#   1]+0.015*[#  11]
          +0.015*[#  15]+0.015*[#   3]+0.015*[#   4]+0.010*[#  10]+0.010*[#  14]
          +0.007*[#   5]+0.003*[#   2]
    |psi|^2 = 0.997
==== e(   8) =    -5.71644 eV ==== 
     psi = 0.543*[#   5]+0.092*[#   8]+0.092*[#   9]+0.032*[#   6]+0.032*[#   7]
          +0.027*[#  11]+0.027*[#  15]+0.025*[#  12]+0.025*[#  13]+0.025*[#  16]
          +0.025*[#  17]+0.014*[#  10]+0.014*[#  14]+0.010*[#   2]+0.008*[#   1]
          +0.003*[#   3]+0.003*[#   4]
    |psi|^2 = 0.997
==== e(   9) =    -5.65915 eV ==== 
     psi = 0.228*[#   8]+0.228*[#   9]+0.140*[#   6]+0.140*[#   7]+0.061*[#   1]
          +0.044*[#   5]+0.027*[#  11]+0.027*[#  15]+0.019*[#  12]+0.019*[#  13]
          +0.019*[#  16]+0.019*[#  17]+0.011*[#  10]+0.011*[#  14]+0.003*[#   3]
          +0.003*[#   4]
    |psi|^2 = 0.996
==== e(  10) =    -5.04341 eV ==== 
     psi = 0.130*[#  12]+0.130*[#  13]+0.130*[#  16]+0.130*[#  17]+0.098*[#  11]
          +0.098*[#  15]+0.048*[#   6]+0.048*[#   7]+0.036*[#   8]+0.036*[#   9]
          +0.031*[#   3]+0.031*[#   4]+0.024*[#   5]+0.009*[#   2]+0.006*[#  10]
          +0.006*[#  14]+0.006*[#   1]
    |psi|^2 = 0.996
==== e(  11) =    -4.63546 eV ==== 
     psi = 0.264*[#  11]+0.264*[#  15]+0.060*[#  12]+0.060*[#  13]+0.060*[#  16]
          +0.060*[#  17]+0.038*[#   6]+0.038*[#   7]+0.036*[#   5]+0.032*[#   8]
          +0.032*[#   9]+0.016*[#   2]+0.009*[#   1]+0.007*[#   3]+0.007*[#   4]
          +0.006*[#  10]+0.006*[#  14]
    |psi|^2 = 0.996
==== e(  12) =    -1.17267 eV ==== 
     psi = 0.246*[#  11]+0.246*[#  15]+0.076*[#   6]+0.076*[#   7]+0.070*[#   8]
          +0.070*[#   9]+0.030*[#  12]+0.030*[#  13]+0.030*[#  16]+0.030*[#  17]
          +0.027*[#   5]+0.021*[#  10]+0.021*[#  14]+0.006*[#   1]+0.002*[#   3]
          +0.002*[#   4]
    |psi|^2 = 0.984
==== e(  13) =    -0.86897 eV ==== 
     psi = 0.164*[#  12]+0.164*[#  13]+0.164*[#  16]+0.164*[#  17]+0.125*[#   6]
          +0.125*[#   7]+0.019*[#   8]+0.019*[#   9]+0.013*[#  11]+0.013*[#  15]
          +0.005*[#   2]+0.004*[#  10]+0.004*[#  14]+0.003*[#   3]+0.003*[#   4]
          
    |psi|^2 = 0.986
==== e(  14) =     1.23568 eV ==== 
     psi = 0.426*[#   1]+0.056*[#  12]+0.056*[#  13]+0.056*[#  16]+0.056*[#  17]
          +0.027*[#   2]+0.018*[#  11]+0.018*[#  15]+0.014*[#   8]+0.014*[#   9]
          +0.013*[#  10]+0.013*[#  14]+0.007*[#   3]+0.007*[#   4]
    |psi|^2 = 0.783
==== e(  15) =     2.86607 eV ==== 
     psi = 0.304*[#   2]+0.150*[#   3]+0.150*[#   4]+0.074*[#  10]+0.074*[#  14]
          +0.020*[#  11]+0.020*[#  15]+0.008*[#   1]+0.008*[#  12]+0.008*[#  13]
          +0.008*[#  16]+0.008*[#  17]+0.001*[#   6]+0.001*[#   7]
    |psi|^2 = 0.834

 k =   0.4250000000 -0.2453738644 -0.0621166667
==== e(   1) =   -16.25551 eV ==== 
     psi = 0.360*[#  10]+0.360*[#  14]+0.070*[#   3]+0.070*[#   4]+0.049*[#   1]
          +0.019*[#   6]+0.019*[#   7]+0.017*[#   8]+0.017*[#   9]+0.003*[#  11]
          +0.003*[#  15]+0.002*[#  12]+0.002*[#  13]+0.002*[#  16]+0.002*[#  17]
          
    |psi|^2 = 0.999
==== e(   2) =   -15.90327 eV ==== 
     psi = 0.389*[#  10]+0.389*[#  14]+0.060*[#   3]+0.060*[#   4]+0.030*[#   2]
          +0.019*[#   6]+0.019*[#   7]+0.014*[#   8]+0.014*[#   9]+0.002*[#   1]
          +0.001*[#  11]+0.001*[#  15]
    |psi|^2 = 1.000
==== e(   3) =    -9.48268 eV ==== 
     psi = 0.162*[#   1]+0.121*[#  12]+0.121*[#  13]+0.121*[#  16]+0.121*[#  17]
          +0.074*[#   6]+0.074*[#   7]+0.051*[#   8]+0.051*[#   9]+0.032*[#  11]
          +0.032*[#  15]+0.014*[#  10]+0.014*[#  14]+0.001*[#   2]
    |psi|^2 = 0.992
==== e(   4) =    -8.19548 eV ==== 
     psi = 0.282*[#   6]+0.282*[#   7]+0.073*[#  12]+0.073*[#  13]+0.073*[#  16]
          +0.073*[#  17]+0.070*[#   8]+0.070*[#   9]
    |psi|^2 = 0.996
==== e(   5) =    -7.76735 eV ==== 
     psi = 0.132*[#   8]+0.132*[#   9]+0.082*[#  12]+0.082*[#  13]+0.082*[#  16]
          +0.082*[#  17]+0.081*[#  11]+0.081*[#  15]+0.055*[#   2]+0.044*[#   5]
          +0.028*[#   1]+0.022*[#   6]+0.022*[#   7]+0.018*[#  10]+0.018*[#  14]
          +0.015*[#   3]+0.015*[#   4]
    |psi|^2 = 0.993
==== e(   6) =    -7.14318 eV ==== 
     psi = 0.352*[#   5]+0.138*[#  11]+0.138*[#  15]+0.054*[#  12]+0.054*[#  13]
          +0.054*[#  16]+0.054*[#  17]+0.027*[#   8]+0.027*[#   9]+0.023*[#   2]
          +0.017*[#   3]+0.017*[#   4]+0.015*[#  10]+0.015*[#  14]+0.010*[#   1]
          
    |psi|^2 = 0.994
==== e(   7) =    -6.09953 eV ==== 
     psi = 0.305*[#   8]+0.305*[#   9]+0.078*[#   6]+0.078*[#   7]+0.052*[#  12]
          +0.052*[#  13]+0.052*[#  16]+0.052*[#  17]+0.012*[#   3]+0.012*[#   4]
          
    |psi|^2 = 0.998
==== e(   8) =    -5.65986 eV ==== 
     psi = 0.143*[#   8]+0.143*[#   9]+0.122*[#   5]+0.107*[#   6]+0.107*[#   7]
          +0.096*[#   1]+0.041*[#  11]+0.041*[#  15]+0.041*[#  12]+0.041*[#  13]
          +0.041*[#  16]+0.041*[#  17]+0.018*[#   2]+0.005*[#  10]+0.005*[#  14]
          
    |psi|^2 = 0.994
==== e(   9) =    -5.58276 eV ==== 
     psi = 0.362*[#   5]+0.152*[#   6]+0.152*[#   7]+0.078*[#  11]+0.078*[#  15]
          +0.037*[#  10]+0.037*[#  14]+0.014*[#  12]+0.014*[#  13]+0.014*[#  16]
          +0.014*[#  17]+0.012*[#   8]+0.012*[#   9]+0.005*[#   1]+0.005*[#   3]
          +0.005*[#   4]+0.003*[#   2]
    |psi|^2 = 0.995
==== e(  10) =    -4.99508 eV ==== 
     psi = 0.170*[#  12]+0.170*[#  13]+0.170*[#  16]+0.170*[#  17]+0.105*[#   8]
          +0.105*[#   9]+0.041*[#   3]+0.041*[#   4]+0.012*[#   6]+0.012*[#   7]
          
    |psi|^2 = 0.997
==== e(  11) =    -4.55752 eV ==== 
     psi = 0.305*[#  11]+0.305*[#  15]+0.086*[#   5]+0.046*[#  12]+0.046*[#  13]
          +0.046*[#  16]+0.046*[#  17]+0.026*[#   6]+0.026*[#   7]+0.016*[#   2]
          +0.012*[#   8]+0.012*[#   9]+0.010*[#   1]+0.006*[#  10]+0.006*[#  14]
          
    |psi|^2 = 0.996
==== e(  12) =    -1.23400 eV ==== 
     psi = 0.259*[#  11]+0.259*[#  15]+0.075*[#   8]+0.075*[#   9]+0.072*[#   6]
          +0.072*[#   7]+0.028*[#   5]+0.023*[#  10]+0.023*[#  14]+0.022*[#  12]
          +0.022*[#  13]+0.022*[#  16]+0.022*[#  17]+0.004*[#   1]+0.003*[#   2]
          +0.002*[#   3]+0.002*[#   4]
    |psi|^2 = 0.986
==== e(  13) =    -0.77319 eV ==== 
     psi = 0.176*[#  12]+0.176*[#  13]+0.176*[#  16]+0.176*[#  17]+0.124*[#   6]
          +0.124*[#   7]+0.018*[#   8]+0.018*[#   9]
    |psi|^2 = 0.990
==== e(  14) =     1.16234 eV ==== 
     psi = 0.423*[#   1]+0.061*[#   2]+0.051*[#  12]+0.051*[#  13]+0.051*[#  16]
          +0.051*[#  17]+0.017*[#   3]+0.017*[#   4]+0.016*[#  10]+0.016*[#  14]
          +0.014*[#  11]+0.014*[#  15]+0.012*[#   8]+0.012*[#   9]
    |psi|^2 = 0.807
==== e(  15) =     2.79283 eV ==== 
     psi = 0.266*[#   2]+0.146*[#   3]+0.146*[#   4]+0.076*[#  10]+0.076*[#  14]
          +0.022*[#  11]+0.022*[#  15]+0.019*[#   1]+0.007*[#  12]+0.007*[#  13]
          +0.007*[#  16]+0.007*[#  17]
    |psi|^2 = 0.804

 k =   0.4750000000  0.8227241336 -0.0621166667
==== e(   1) =   -16.11526 eV ==== 
     psi = 0.401*[#  10]+0.401*[#  14]+0.040*[#   1]+0.040*[#   6]+0.040*[#   7]
          +0.033*[#   8]+0.033*[#   9]+0.002*[#   3]+0.002*[#   4]+0.001*[#  12]
          +0.001*[#  13]+0.001*[#  16]+0.001*[#  17]+0.001*[#  11]+0.001*[#  15]
          
    |psi|^2 = 0.999
==== e(   2) =   -15.94005 eV ==== 
     psi = 0.361*[#  10]+0.361*[#  14]+0.127*[#   3]+0.127*[#   4]+0.014*[#   2]
          +0.003*[#  11]+0.003*[#  15]
    |psi|^2 = 1.000
==== e(   3) =    -9.63542 eV ==== 
     psi = 0.178*[#   1]+0.126*[#  12]+0.126*[#  13]+0.126*[#  16]+0.126*[#  17]
          +0.077*[#   6]+0.077*[#   7]+0.040*[#   8]+0.040*[#   9]+0.028*[#  11]
          +0.028*[#  15]+0.008*[#  10]+0.008*[#  14]
    |psi|^2 = 0.991
==== e(   4) =    -8.21283 eV ==== 
     psi = 0.286*[#   6]+0.286*[#   7]+0.077*[#  12]+0.077*[#  13]+0.077*[#  16]
          +0.077*[#  17]+0.052*[#   8]+0.052*[#   9]+0.004*[#   3]+0.004*[#   4]
          
    |psi|^2 = 0.996
==== e(   5) =    -7.44200 eV ==== 
     psi = 0.232*[#   5]+0.189*[#   8]+0.189*[#   9]+0.112*[#  11]+0.112*[#  15]
          +0.045*[#   1]+0.018*[#  12]+0.018*[#  13]+0.018*[#  16]+0.018*[#  17]
          +0.016*[#  10]+0.016*[#  14]+0.006*[#   6]+0.006*[#   7]
    |psi|^2 = 0.995
==== e(   6) =    -7.26780 eV ==== 
     psi = 0.138*[#  12]+0.138*[#  13]+0.138*[#  16]+0.138*[#  17]+0.099*[#  11]
          +0.099*[#  15]+0.086*[#   2]+0.038*[#   3]+0.038*[#   4]+0.020*[#  10]
          +0.020*[#  14]+0.018*[#   8]+0.018*[#   9]+0.003*[#   6]+0.003*[#   7]
          
    |psi|^2 = 0.992
==== e(   7) =    -5.91511 eV ==== 
     psi = 0.173*[#   6]+0.173*[#   7]+0.142*[#   5]+0.074*[#  12]+0.074*[#  13]
          +0.074*[#  16]+0.074*[#  17]+0.044*[#  11]+0.044*[#  15]+0.030*[#  10]
          +0.030*[#  14]+0.026*[#   1]+0.016*[#   3]+0.016*[#   4]+0.002*[#   8]
          +0.002*[#   9]
    |psi|^2 = 0.995
==== e(   8) =    -5.81568 eV ==== 
     psi = 0.400*[#   8]+0.400*[#   9]+0.075*[#   6]+0.075*[#   7]+0.009*[#  12]
          +0.009*[#  13]+0.009*[#  16]+0.009*[#  17]+0.005*[#   2]+0.002*[#  11]
          +0.002*[#  15]
    |psi|^2 = 0.999
==== e(   9) =    -5.73914 eV ==== 
     psi = 0.594*[#   5]+0.096*[#   8]+0.096*[#   9]+0.051*[#   1]+0.033*[#  12]
          +0.033*[#  13]+0.033*[#  16]+0.033*[#  17]+0.007*[#   6]+0.007*[#   7]
          +0.007*[#   3]+0.007*[#   4]
    |psi|^2 = 0.997
==== e(  10) =    -5.01992 eV ==== 
     psi = 0.121*[#  12]+0.121*[#  13]+0.121*[#  16]+0.121*[#  17]+0.115*[#   6]
          +0.115*[#   7]+0.050*[#   8]+0.050*[#   9]+0.036*[#  11]+0.036*[#  15]
          +0.031*[#   3]+0.031*[#   4]+0.027*[#   1]+0.010*[#  10]+0.010*[#  14]
          
    |psi|^2 = 0.996
==== e(  11) =    -4.83964 eV ==== 
     psi = 0.354*[#  11]+0.354*[#  15]+0.053*[#  12]+0.053*[#  13]+0.053*[#  16]
          +0.053*[#  17]+0.030*[#   2]+0.011*[#   8]+0.011*[#   9]+0.007*[#  10]
          +0.007*[#  14]+0.003*[#   6]+0.003*[#   7]+0.002*[#   3]+0.002*[#   4]
          
    |psi|^2 = 0.996
==== e(  12) =    -1.10236 eV ==== 
     psi = 0.253*[#  11]+0.253*[#  15]+0.076*[#   6]+0.076*[#   7]+0.072*[#   8]
          +0.072*[#   9]+0.028*[#   5]+0.027*[#  12]+0.027*[#  13]+0.027*[#  16]
          +0.027*[#  17]+0.020*[#  10]+0.020*[#  14]+0.007*[#   1]
    |psi|^2 = 0.984
==== e(  13) =    -0.86527 eV ==== 
     psi = 0.168*[#  12]+0.168*[#  13]+0.168*[#  16]+0.168*[#  17]+0.128*[#   6]
          +0.128*[#   7]+0.015*[#   8]+0.015*[#   9]+0.004*[#  11]+0.004*[#  15]
          +0.004*[#   2]+0.003*[#   3]+0.003*[#   4]+0.003*[#  10]+0.003*[#  14]
          
    |psi|^2 = 0.985
==== e(  14) =     1.22097 eV ==== 
     psi = 0.430*[#   1]+0.058*[#  12]+0.058*[#  13]+0.058*[#  16]+0.058*[#  17]
          +0.023*[#  11]+0.023*[#  15]+0.016*[#   8]+0.016*[#   9]+0.011*[#  10]
          +0.011*[#  14]
    |psi|^2 = 0.765
==== e(  15) =     2.80213 eV ==== 
     psi = 0.334*[#   2]+0.157*[#   3]+0.157*[#   4]+0.076*[#  10]+0.076*[#  14]
          +0.019*[#  11]+0.019*[#  15]+0.005*[#  12]+0.005*[#  13]+0.005*[#  16]
          +0.005*[#  17]+0.001*[#   6]+0.001*[#   7]
    |psi|^2 = 0.862

 k =   0.4750000000 -0.2742413779 -0.0621166667
==== e(   1) =   -16.14193 eV ==== 
     psi = 0.392*[#  10]+0.392*[#  14]+0.043*[#   1]+0.036*[#   6]+0.036*[#   7]
          +0.030*[#   8]+0.030*[#   9]+0.015*[#   3]+0.015*[#   4]+0.002*[#  11]
          +0.002*[#  12]+0.002*[#  13]+0.002*[#  15]+0.002*[#  16]+0.002*[#  17]
          
    |psi|^2 = 0.999
==== e(   2) =   -15.93388 eV ==== 
     psi = 0.367*[#  10]+0.366*[#  14]+0.114*[#   3]+0.114*[#   4]+0.016*[#   2]
          +0.004*[#   6]+0.004*[#   7]+0.003*[#   8]+0.003*[#   9]+0.003*[#  11]
          +0.003*[#  15]
    |psi|^2 = 1.000
==== e(   3) =    -9.64045 eV ==== 
     psi = 0.175*[#   1]+0.126*[#  12]+0.126*[#  13]+0.126*[#  16]+0.126*[#  17]
          +0.077*[#   6]+0.077*[#   7]+0.042*[#   8]+0.042*[#   9]+0.029*[#  11]
          +0.029*[#  15]+0.009*[#  10]+0.009*[#  14]
    |psi|^2 = 0.991
==== e(   4) =    -8.19129 eV ==== 
     psi = 0.291*[#   6]+0.291*[#   7]+0.073*[#  12]+0.073*[#  13]+0.073*[#  16]
          +0.073*[#  17]+0.062*[#   8]+0.062*[#   9]
    |psi|^2 = 0.996
==== e(   5) =    -7.51820 eV ==== 
     psi = 0.150*[#   8]+0.150*[#   9]+0.140*[#   5]+0.101*[#  11]+0.101*[#  15]
          +0.054*[#  12]+0.054*[#  13]+0.054*[#  16]+0.054*[#  17]+0.033*[#   1]
          +0.028*[#   2]+0.018*[#  10]+0.018*[#  14]+0.010*[#   3]+0.010*[#   4]
          +0.009*[#   6]+0.009*[#   7]
    |psi|^2 = 0.994
==== e(   6) =    -7.24057 eV ==== 
     psi = 0.119*[#   5]+0.109*[#  11]+0.109*[#  15]+0.106*[#  12]+0.106*[#  13]
          +0.106*[#  16]+0.106*[#  17]+0.060*[#   2]+0.032*[#   8]+0.032*[#   9]
          +0.030*[#   3]+0.030*[#   4]+0.018*[#  10]+0.018*[#  14]+0.009*[#   1]
          
    |psi|^2 = 0.992
==== e(   7) =    -5.86673 eV ==== 
     psi = 0.384*[#   8]+0.384*[#   9]+0.074*[#   6]+0.074*[#   7]+0.019*[#  12]
          +0.019*[#  13]+0.019*[#  16]+0.019*[#  17]+0.004*[#   3]+0.004*[#   4]
          
    |psi|^2 = 0.999
==== e(   8) =    -5.77204 eV ==== 
     psi = 0.649*[#   5]+0.059*[#   8]+0.059*[#   9]+0.056*[#   6]+0.056*[#   7]
          +0.028*[#  11]+0.028*[#  15]+0.018*[#  10]+0.018*[#  14]+0.005*[#  12]
          +0.005*[#  13]+0.005*[#  16]+0.005*[#  17]+0.003*[#   1]+0.002*[#   2]
          
    |psi|^2 = 0.997
==== e(   9) =    -5.49436 eV ==== 
     psi = 0.230*[#   6]+0.230*[#   7]+0.101*[#   1]+0.087*[#   8]+0.087*[#   9]
          +0.060*[#  11]+0.060*[#  15]+0.038*[#   5]+0.022*[#  10]+0.022*[#  14]
          +0.013*[#  12]+0.013*[#  13]+0.013*[#  16]+0.013*[#  17]+0.003*[#   2]
          
    |psi|^2 = 0.994
==== e(  10) =    -5.28976 eV ==== 
     psi = 0.203*[#  12]+0.203*[#  13]+0.203*[#  16]+0.203*[#  17]+0.050*[#   3]
          +0.050*[#   4]+0.037*[#   8]+0.037*[#   9]+0.005*[#   6]+0.005*[#   7]
          
    |psi|^2 = 0.997
==== e(  11) =    -4.81631 eV ==== 
     psi = 0.347*[#  11]+0.347*[#  15]+0.053*[#  12]+0.053*[#  13]+0.053*[#  16]
          +0.053*[#  17]+0.028*[#   2]+0.019*[#   5]+0.008*[#   6]+0.008*[#   7]
          +0.007*[#  10]+0.007*[#  14]+0.004*[#   8]+0.004*[#   9]+0.003*[#   1]
          +0.001*[#   3]+0.001*[#   4]
    |psi|^2 = 0.996
==== e(  12) =    -1.10617 eV ==== 
     psi = 0.257*[#  11]+0.257*[#  15]+0.074*[#   6]+0.074*[#   7]+0.074*[#   8]
          +0.074*[#   9]+0.029*[#   5]+0.025*[#  12]+0.025*[#  13]+0.025*[#  16]
          +0.025*[#  17]+0.021*[#  10]+0.021*[#  14]+0.006*[#   1]
    |psi|^2 = 0.985
==== e(  13) =    -0.74899 eV ==== 
     psi = 0.176*[#  12]+0.176*[#  13]+0.176*[#  16]+0.176*[#  17]+0.127*[#   6]
          +0.127*[#   7]+0.016*[#   8]+0.016*[#   9]
    |psi|^2 = 0.990
==== e(  14) =     1.13697 eV ==== 
     psi = 0.431*[#   1]+0.057*[#  12]+0.057*[#  13]+0.057*[#  16]+0.057*[#  17]
          +0.022*[#  11]+0.022*[#  15]+0.016*[#   8]+0.016*[#   9]+0.012*[#  10]
          +0.012*[#  14]+0.008*[#   2]+0.002*[#   3]+0.002*[#   4]
    |psi|^2 = 0.772
==== e(  15) =     2.65856 eV ==== 
     psi = 0.324*[#   2]+0.161*[#   3]+0.161*[#   4]+0.081*[#  10]+0.081*[#  14]
          +0.021*[#  11]+0.021*[#  15]+0.002*[#   1]
    |psi|^2 = 0.855

Lowdin Charges: 

     Atom #   1: total charge =  10.5270, s =  0.7125, 
     Atom #   1: total charge =  10.5270, p =  1.1522, pz=  0.3760, px=  0.3881, py=  0.3881, 
     Atom #   1: total charge =  10.5270, d =  8.6624, dz2=  1.9551, dxz=  1.6018, dyz=  1.6018, dx2-y2=  1.7518, dxy=  1.7518, 
     Atom #   2: total charge =   5.6908, s =  1.6473, 
     Atom #   2: total charge =   5.6908, p =  4.0435, pz=  1.4668, px=  1.2884, py=  1.2884, 
     Atom #   2: total charge =   5.6908, d =  0.0000, dz2=  0.0000, dxz=  0.0000, dyz=  0.0000, dx2-y2=  0.0000, dxy=  0.0000, 
     Atom #   3: total charge =   5.6908, s =  1.6473, 
     Atom #   3: total charge =   5.6908, p =  4.0435, pz=  1.4668, px=  1.2884, py=  1.2884, 
     Atom #   3: total charge =   5.6908, d =  0.0000, dz2=  0.0000, dxz=  0.0000, dyz=  0.0000, dx2-y2=  0.0000, dxy=  0.0000, 
     Spilling Parameter:   0.0042

     PROJWFC      :      9.28s CPU     10.86s WALL


   This run was terminated on:  13:55:29  19Jun2025            

=------------------------------------------------------------------------------=
   JOB DONE.
=------------------------------------------------------------------------------=
