# E (eV) pdos(E) 
-17.637  0.163E-04
-17.627  0.782E-03
-17.617  0.129E-01
-17.607  0.752E-01
-17.597  0.173E+00
-17.587  0.201E+00
-17.577  0.147E+00
-17.567  0.163E+00
-17.557  0.283E+00
-17.547  0.269E+00
-17.537  0.158E+00
-17.527  0.150E+00
-17.517  0.229E+00
-17.507  0.152E+00
-17.497  0.548E-01
-17.487  0.124E+00
-17.477  0.284E+00
-17.467  0.327E+00
-17.457  0.212E+00
-17.447  0.118E+00
-17.437  0.144E+00
-17.427  0.153E+00
-17.417  0.115E+00
-17.407  0.146E+00
-17.397  0.188E+00
-17.387  0.974E-01
-17.377  0.554E-01
-17.367  0.160E+00
-17.357  0.275E+00
-17.347  0.251E+00
-17.337  0.160E+00
-17.327  0.169E+00
-17.317  0.146E+00
-17.307  0.646E-01
-17.297  0.116E+00
-17.287  0.235E+00
-17.277  0.168E+00
-17.267  0.419E-01
-17.257  0.179E-01
-17.247  0.802E-01
-17.237  0.154E+00
-17.227  0.139E+00
-17.217  0.175E+00
-17.207  0.238E+00
-17.197  0.194E+00
-17.187  0.137E+00
-17.177  0.146E+00
-17.167  0.913E-01
-17.157  0.532E-01
-17.147  0.122E+00
-17.137  0.167E+00
-17.127  0.121E+00
-17.117  0.106E+00
-17.107  0.159E+00
-17.097  0.143E+00
-17.087  0.629E-01
-17.077  0.125E-01
-17.067  0.335E-02
-17.057  0.327E-01
-17.047  0.159E+00
-17.037  0.293E+00
-17.027  0.244E+00
-17.017  0.142E+00
-17.007  0.124E+00
-16.997  0.868E-01
-16.987  0.540E-01
-16.977  0.965E-01
-16.967  0.939E-01
-16.957  0.494E-01
-16.947  0.949E-01
-16.937  0.178E+00
-16.927  0.147E+00
-16.917  0.624E-01
-16.907  0.671E-01
-16.897  0.104E+00
-16.887  0.845E-01
-16.877  0.578E-01
-16.867  0.316E-01
-16.857  0.498E-01
-16.847  0.129E+00
-16.837  0.173E+00
-16.827  0.180E+00
-16.817  0.193E+00
-16.807  0.119E+00
-16.797  0.719E-01
-16.787  0.865E-01
-16.777  0.514E-01
-16.767  0.289E-01
-16.757  0.810E-01
-16.747  0.128E+00
-16.737  0.110E+00
-16.727  0.935E-01
-16.717  0.743E-01
-16.707  0.815E-01
-16.697  0.649E-01
-16.687  0.503E-01
-16.677  0.746E-01
-16.667  0.645E-01
-16.657  0.735E-01
-16.647  0.132E+00
-16.637  0.146E+00
-16.627  0.113E+00
-16.617  0.850E-01
-16.607  0.815E-01
-16.597  0.126E+00
-16.587  0.107E+00
-16.577  0.584E-01
-16.567  0.660E-01
-16.557  0.611E-01
-16.547  0.670E-01
-16.537  0.926E-01
-16.527  0.996E-01
-16.517  0.890E-01
-16.507  0.576E-01
-16.497  0.375E-01
-16.487  0.563E-01
-16.477  0.538E-01
-16.467  0.556E-01
-16.457  0.951E-01
-16.447  0.134E+00
-16.437  0.140E+00
-16.427  0.103E+00
-16.417  0.706E-01
-16.407  0.579E-01
-16.397  0.646E-01
-16.387  0.959E-01
-16.377  0.771E-01
-16.367  0.628E-01
-16.357  0.825E-01
-16.347  0.797E-01
-16.337  0.696E-01
-16.327  0.732E-01
-16.317  0.655E-01
-16.307  0.460E-01
-16.297  0.475E-01
-16.287  0.519E-01
-16.277  0.791E-01
-16.267  0.128E+00
-16.257  0.127E+00
-16.247  0.902E-01
-16.237  0.682E-01
-16.227  0.764E-01
-16.217  0.881E-01
-16.207  0.713E-01
-16.197  0.678E-01
-16.187  0.860E-01
-16.177  0.931E-01
-16.167  0.861E-01
-16.157  0.810E-01
-16.147  0.728E-01
-16.137  0.778E-01
-16.127  0.107E+00
-16.117  0.173E+00
-16.107  0.178E+00
-16.097  0.847E-01
-16.087  0.254E-01
-16.077  0.308E-01
-16.067  0.472E-01
-16.057  0.490E-01
-16.047  0.315E-01
-16.037  0.226E-01
-16.027  0.322E-01
-16.017  0.424E-01
-16.007  0.330E-01
-15.997  0.139E-01
-15.987  0.108E-01
-15.977  0.118E-01
-15.967  0.820E-02
-15.957  0.686E-02
-15.947  0.742E-02
-15.937  0.792E-02
-15.927  0.991E-02
-15.917  0.115E-01
-15.907  0.117E-01
-15.897  0.108E-01
-15.887  0.944E-02
-15.877  0.784E-02
-15.867  0.620E-02
-15.857  0.466E-02
-15.847  0.333E-02
-15.837  0.226E-02
-15.827  0.145E-02
-15.817  0.876E-03
-15.807  0.492E-03
-15.797  0.250E-03
-15.787  0.113E-03
-15.777  0.433E-04
-15.767  0.131E-04
-15.757  0.288E-05
-15.747  0.405E-06
-15.737  0.321E-07
-15.727  0.127E-08
-15.717  0.227E-10
-15.707  0.170E-12
-15.697  0.501E-15
-15.687  0.548E-18
-15.677  0.693E-23
-15.667  0.000E+00
-15.657  0.000E+00
-15.647  0.000E+00
-15.637  0.000E+00
-15.627  0.000E+00
-15.617  0.000E+00
-15.607  0.000E+00
-15.597  0.000E+00
-15.587  0.000E+00
-15.577  0.000E+00
-15.567  0.000E+00
-15.557  0.000E+00
-15.547  0.000E+00
-15.537  0.000E+00
-15.527  0.000E+00
-15.517  0.000E+00
-15.507  0.000E+00
-15.497  0.000E+00
-15.487  0.000E+00
-15.477  0.000E+00
-15.467  0.000E+00
-15.457  0.000E+00
-15.447  0.000E+00
-15.437  0.000E+00
-15.427  0.000E+00
-15.417  0.000E+00
-15.407  0.000E+00
-15.397  0.000E+00
-15.387  0.000E+00
-15.377  0.000E+00
-15.367  0.000E+00
-15.357  0.000E+00
-15.347  0.000E+00
-15.337  0.000E+00
-15.327  0.000E+00
-15.317  0.000E+00
-15.307  0.000E+00
-15.297  0.000E+00
-15.287  0.000E+00
-15.277  0.000E+00
-15.267  0.000E+00
-15.257  0.000E+00
-15.247  0.000E+00
-15.237  0.000E+00
-15.227  0.000E+00
-15.217  0.000E+00
-15.207  0.000E+00
-15.197  0.000E+00
-15.187  0.000E+00
-15.177  0.000E+00
-15.167  0.000E+00
-15.157  0.000E+00
-15.147  0.000E+00
-15.137  0.000E+00
-15.127  0.000E+00
-15.117  0.000E+00
-15.107  0.000E+00
-15.097  0.000E+00
-15.087  0.000E+00
-15.077  0.000E+00
-15.067  0.000E+00
-15.057  0.000E+00
-15.047  0.000E+00
-15.037  0.000E+00
-15.027  0.000E+00
-15.017  0.000E+00
-15.007  0.000E+00
-14.997  0.000E+00
-14.987  0.000E+00
-14.977  0.000E+00
-14.967  0.000E+00
-14.957  0.000E+00
-14.947  0.000E+00
-14.937  0.000E+00
-14.927  0.000E+00
-14.917  0.000E+00
-14.907  0.000E+00
-14.897  0.000E+00
-14.887  0.000E+00
-14.877  0.000E+00
-14.867  0.000E+00
-14.857  0.000E+00
-14.847  0.000E+00
-14.837  0.000E+00
-14.827  0.000E+00
-14.817  0.000E+00
-14.807  0.000E+00
-14.797  0.000E+00
-14.787  0.000E+00
-14.777  0.000E+00
-14.767  0.000E+00
-14.757  0.000E+00
-14.747  0.000E+00
-14.737  0.000E+00
-14.727  0.000E+00
-14.717  0.000E+00
-14.707  0.000E+00
-14.697  0.000E+00
-14.687  0.000E+00
-14.677  0.000E+00
-14.667  0.000E+00
-14.657  0.000E+00
-14.647  0.000E+00
-14.637  0.000E+00
-14.627  0.000E+00
-14.617  0.000E+00
-14.607  0.000E+00
-14.597  0.000E+00
-14.587  0.000E+00
-14.577  0.000E+00
-14.567  0.000E+00
-14.557  0.000E+00
-14.547  0.000E+00
-14.537  0.000E+00
-14.527  0.000E+00
-14.517  0.000E+00
-14.507  0.000E+00
-14.497  0.000E+00
-14.487  0.000E+00
-14.477  0.000E+00
-14.467  0.000E+00
-14.457  0.000E+00
-14.447  0.000E+00
-14.437  0.000E+00
-14.427  0.000E+00
-14.417  0.000E+00
-14.407  0.000E+00
-14.397  0.000E+00
-14.387  0.000E+00
-14.377  0.000E+00
-14.367  0.000E+00
-14.357  0.000E+00
-14.347  0.000E+00
-14.337  0.000E+00
-14.327  0.000E+00
-14.317  0.000E+00
-14.307  0.000E+00
-14.297  0.000E+00
-14.287  0.000E+00
-14.277  0.000E+00
-14.267  0.000E+00
-14.257  0.000E+00
-14.247  0.000E+00
-14.237  0.000E+00
-14.227  0.000E+00
-14.217  0.000E+00
-14.207  0.000E+00
-14.197  0.000E+00
-14.187  0.000E+00
-14.177  0.000E+00
-14.167  0.000E+00
-14.157  0.000E+00
-14.147  0.000E+00
-14.137  0.000E+00
-14.127  0.000E+00
-14.117  0.000E+00
-14.107  0.000E+00
-14.097  0.000E+00
-14.087  0.000E+00
-14.077  0.000E+00
-14.067  0.000E+00
-14.057  0.000E+00
-14.047  0.000E+00
-14.037  0.000E+00
-14.027  0.000E+00
-14.017  0.000E+00
-14.007  0.000E+00
-13.997  0.000E+00
-13.987  0.000E+00
-13.977  0.000E+00
-13.967  0.000E+00
-13.957  0.000E+00
-13.947  0.000E+00
-13.937  0.000E+00
-13.927  0.000E+00
-13.917  0.000E+00
-13.907  0.000E+00
-13.897  0.000E+00
-13.887  0.000E+00
-13.877  0.000E+00
-13.867  0.000E+00
-13.857  0.000E+00
-13.847  0.000E+00
-13.837  0.000E+00
-13.827  0.000E+00
-13.817  0.000E+00
-13.807  0.000E+00
-13.797  0.000E+00
-13.787  0.000E+00
-13.777  0.000E+00
-13.767  0.000E+00
-13.757  0.000E+00
-13.747  0.000E+00
-13.737  0.000E+00
-13.727  0.000E+00
-13.717  0.000E+00
-13.707  0.000E+00
-13.697  0.000E+00
-13.687  0.000E+00
-13.677  0.000E+00
-13.667  0.000E+00
-13.657  0.000E+00
-13.647  0.000E+00
-13.637  0.000E+00
-13.627  0.000E+00
-13.617  0.000E+00
-13.607  0.000E+00
-13.597  0.000E+00
-13.587  0.000E+00
-13.577  0.000E+00
-13.567  0.000E+00
-13.557  0.000E+00
-13.547  0.000E+00
-13.537  0.000E+00
-13.527  0.000E+00
-13.517  0.000E+00
-13.507  0.000E+00
-13.497  0.000E+00
-13.487  0.000E+00
-13.477  0.000E+00
-13.467  0.000E+00
-13.457  0.000E+00
-13.447  0.000E+00
-13.437  0.000E+00
-13.427  0.000E+00
-13.417  0.000E+00
-13.407  0.000E+00
-13.397  0.000E+00
-13.387  0.000E+00
-13.377  0.000E+00
-13.367  0.000E+00
-13.357  0.000E+00
-13.347  0.000E+00
-13.337  0.000E+00
-13.327  0.000E+00
-13.317  0.000E+00
-13.307  0.000E+00
-13.297  0.000E+00
-13.287  0.000E+00
-13.277  0.000E+00
-13.267  0.000E+00
-13.257  0.000E+00
-13.247  0.000E+00
-13.237  0.000E+00
-13.227  0.000E+00
-13.217  0.000E+00
-13.207  0.000E+00
-13.197  0.000E+00
-13.187  0.000E+00
-13.177  0.000E+00
-13.167  0.000E+00
-13.157  0.000E+00
-13.147  0.000E+00
-13.137  0.000E+00
-13.127  0.000E+00
-13.117  0.000E+00
-13.107  0.000E+00
-13.097  0.000E+00
-13.087  0.000E+00
-13.077  0.000E+00
-13.067  0.000E+00
-13.057  0.000E+00
-13.047  0.000E+00
-13.037  0.000E+00
-13.027  0.000E+00
-13.017  0.000E+00
-13.007  0.000E+00
-12.997  0.000E+00
-12.987  0.000E+00
-12.977  0.000E+00
-12.967  0.000E+00
-12.957  0.000E+00
-12.947  0.000E+00
-12.937  0.000E+00
-12.927  0.000E+00
-12.917  0.000E+00
-12.907  0.000E+00
-12.897  0.000E+00
-12.887  0.000E+00
-12.877  0.000E+00
-12.867  0.000E+00
-12.857  0.000E+00
-12.847  0.000E+00
-12.837  0.000E+00
-12.827  0.000E+00
-12.817  0.000E+00
-12.807  0.000E+00
-12.797  0.000E+00
-12.787  0.000E+00
-12.777  0.000E+00
-12.767  0.000E+00
-12.757  0.000E+00
-12.747  0.000E+00
-12.737  0.000E+00
-12.727  0.000E+00
-12.717  0.000E+00
-12.707  0.000E+00
-12.697  0.000E+00
-12.687  0.000E+00
-12.677  0.000E+00
-12.667  0.000E+00
-12.657  0.000E+00
-12.647  0.000E+00
-12.637  0.000E+00
-12.627  0.000E+00
-12.617  0.000E+00
-12.607  0.000E+00
-12.597  0.000E+00
-12.587  0.000E+00
-12.577  0.000E+00
-12.567  0.000E+00
-12.557  0.000E+00
-12.547  0.000E+00
-12.537  0.000E+00
-12.527  0.000E+00
-12.517  0.000E+00
-12.507  0.000E+00
-12.497  0.000E+00
-12.487  0.000E+00
-12.477  0.000E+00
-12.467  0.000E+00
-12.457  0.000E+00
-12.447  0.000E+00
-12.437  0.000E+00
-12.427  0.000E+00
-12.417  0.000E+00
-12.407  0.000E+00
-12.397  0.000E+00
-12.387  0.000E+00
-12.377  0.000E+00
-12.367  0.000E+00
-12.357  0.000E+00
-12.347  0.000E+00
-12.337  0.000E+00
-12.327  0.000E+00
-12.317  0.000E+00
-12.307  0.000E+00
-12.297  0.000E+00
-12.287  0.000E+00
-12.277  0.000E+00
-12.267  0.000E+00
-12.257  0.000E+00
-12.247  0.000E+00
-12.237  0.000E+00
-12.227  0.000E+00
-12.217  0.000E+00
-12.207  0.000E+00
-12.197  0.000E+00
-12.187  0.000E+00
-12.177  0.000E+00
-12.167  0.000E+00
-12.157  0.000E+00
-12.147  0.000E+00
-12.137  0.000E+00
-12.127  0.000E+00
-12.117  0.000E+00
-12.107  0.000E+00
-12.097  0.000E+00
-12.087  0.000E+00
-12.077  0.000E+00
-12.067  0.000E+00
-12.057  0.000E+00
-12.047  0.000E+00
-12.037  0.000E+00
-12.027  0.000E+00
-12.017  0.000E+00
-12.007  0.000E+00
-11.997  0.000E+00
-11.987  0.000E+00
-11.977  0.000E+00
-11.967  0.000E+00
-11.957  0.000E+00
-11.947  0.000E+00
-11.937  0.000E+00
-11.927  0.000E+00
-11.917  0.000E+00
-11.907  0.000E+00
-11.897  0.000E+00
-11.887  0.000E+00
-11.877  0.000E+00
-11.867  0.000E+00
-11.857  0.000E+00
-11.847  0.000E+00
-11.837  0.000E+00
-11.827  0.000E+00
-11.817  0.000E+00
-11.807  0.000E+00
-11.797  0.000E+00
-11.787  0.000E+00
-11.777  0.000E+00
-11.767  0.000E+00
-11.757  0.000E+00
-11.747  0.000E+00
-11.737  0.000E+00
-11.727  0.000E+00
-11.717  0.000E+00
-11.707  0.000E+00
-11.697  0.000E+00
-11.687  0.000E+00
-11.677  0.000E+00
-11.667  0.000E+00
-11.657  0.000E+00
-11.647  0.000E+00
-11.637  0.000E+00
-11.627  0.000E+00
-11.617  0.000E+00
-11.607  0.000E+00
-11.597  0.000E+00
-11.587  0.000E+00
-11.577  0.000E+00
-11.567  0.000E+00
-11.557  0.000E+00
-11.547  0.000E+00
-11.537  0.000E+00
-11.527  0.000E+00
-11.517  0.000E+00
-11.507  0.000E+00
-11.497  0.000E+00
-11.487  0.000E+00
-11.477  0.000E+00
-11.467  0.000E+00
-11.457  0.000E+00
-11.447  0.000E+00
-11.437  0.000E+00
-11.427  0.000E+00
-11.417  0.000E+00
-11.407  0.000E+00
-11.397  0.000E+00
-11.387  0.000E+00
-11.377  0.000E+00
-11.367  0.000E+00
-11.357  0.000E+00
-11.347  0.000E+00
-11.337  0.000E+00
-11.327  0.000E+00
-11.317  0.000E+00
-11.307  0.000E+00
-11.297  0.000E+00
-11.287  0.000E+00
-11.277  0.000E+00
-11.267  0.000E+00
-11.257  0.000E+00
-11.247  0.000E+00
-11.237  0.000E+00
-11.227  0.000E+00
-11.217  0.000E+00
-11.207  0.000E+00
-11.197  0.000E+00
-11.187  0.000E+00
-11.177  0.000E+00
-11.167  0.000E+00
-11.157  0.000E+00
-11.147  0.000E+00
-11.137  0.000E+00
-11.127  0.000E+00
-11.117  0.000E+00
-11.107  0.000E+00
-11.097  0.000E+00
-11.087  0.000E+00
-11.077  0.000E+00
-11.067  0.000E+00
-11.057  0.000E+00
-11.047  0.000E+00
-11.037  0.000E+00
-11.027  0.000E+00
-11.017  0.000E+00
-11.007  0.000E+00
-10.997  0.000E+00
-10.987  0.000E+00
-10.977  0.000E+00
-10.967  0.000E+00
-10.957  0.000E+00
-10.947  0.000E+00
-10.937  0.000E+00
-10.927  0.000E+00
-10.917  0.000E+00
-10.907  0.000E+00
-10.897  0.000E+00
-10.887  0.000E+00
-10.877  0.000E+00
-10.867  0.000E+00
-10.857  0.000E+00
-10.847  0.000E+00
-10.837  0.000E+00
-10.827  0.000E+00
-10.817  0.000E+00
-10.807  0.000E+00
-10.797  0.000E+00
-10.787  0.000E+00
-10.777  0.000E+00
-10.767  0.000E+00
-10.757  0.000E+00
-10.747  0.000E+00
-10.737  0.000E+00
-10.727  0.000E+00
-10.717  0.000E+00
-10.707  0.000E+00
-10.697  0.000E+00
-10.687  0.000E+00
-10.677  0.000E+00
-10.667  0.000E+00
-10.657  0.000E+00
-10.647  0.000E+00
-10.637  0.000E+00
-10.627  0.000E+00
-10.617  0.000E+00
-10.607  0.000E+00
-10.597  0.000E+00
-10.587  0.000E+00
-10.577  0.000E+00
-10.567  0.000E+00
-10.557  0.000E+00
-10.547  0.000E+00
-10.537  0.000E+00
-10.527  0.000E+00
-10.517  0.000E+00
-10.507  0.000E+00
-10.497  0.000E+00
-10.487  0.000E+00
-10.477  0.000E+00
-10.467  0.000E+00
-10.457  0.000E+00
-10.447  0.000E+00
-10.437  0.000E+00
-10.427  0.000E+00
-10.417  0.000E+00
-10.407  0.000E+00
-10.397  0.000E+00
-10.387  0.000E+00
-10.377  0.000E+00
-10.367  0.000E+00
-10.357  0.000E+00
-10.347  0.000E+00
-10.337  0.000E+00
-10.327  0.000E+00
-10.317  0.000E+00
-10.307  0.000E+00
-10.297  0.000E+00
-10.287  0.000E+00
-10.277  0.000E+00
-10.267  0.000E+00
-10.257  0.000E+00
-10.247  0.000E+00
-10.237  0.000E+00
-10.227  0.000E+00
-10.217  0.000E+00
-10.207  0.000E+00
-10.197  0.000E+00
-10.187  0.000E+00
-10.177  0.000E+00
-10.167  0.000E+00
-10.157  0.000E+00
-10.147  0.000E+00
-10.137  0.000E+00
-10.127  0.000E+00
-10.117  0.000E+00
-10.107  0.000E+00
-10.097  0.000E+00
-10.087  0.000E+00
-10.077  0.000E+00
-10.067  0.000E+00
-10.057  0.000E+00
-10.047  0.000E+00
-10.037  0.000E+00
-10.027  0.000E+00
-10.017  0.000E+00
-10.007  0.000E+00
 -9.997  0.000E+00
 -9.987  0.000E+00
 -9.977  0.000E+00
 -9.967  0.000E+00
 -9.957  0.000E+00
 -9.947  0.000E+00
 -9.937  0.000E+00
 -9.927  0.000E+00
 -9.917  0.000E+00
 -9.907  0.000E+00
 -9.897  0.000E+00
 -9.887  0.000E+00
 -9.877  0.000E+00
 -9.867  0.000E+00
 -9.857  0.000E+00
 -9.847  0.000E+00
 -9.837  0.000E+00
 -9.827  0.000E+00
 -9.817  0.000E+00
 -9.807  0.000E+00
 -9.797  0.000E+00
 -9.787  0.000E+00
 -9.777  0.000E+00
 -9.767  0.000E+00
 -9.757  0.000E+00
 -9.747  0.000E+00
 -9.737  0.000E+00
 -9.727  0.000E+00
 -9.717  0.374E-11
 -9.707  0.310E-08
 -9.697  0.874E-06
 -9.687  0.839E-04
 -9.677  0.276E-02
 -9.667  0.318E-01
 -9.657  0.135E+00
 -9.647  0.237E+00
 -9.637  0.203E+00
 -9.627  0.111E+00
 -9.617  0.144E+00
 -9.607  0.247E+00
 -9.597  0.210E+00
 -9.587  0.809E-01
 -9.577  0.501E-01
 -9.567  0.180E+00
 -9.557  0.319E+00
 -9.547  0.306E+00
 -9.537  0.277E+00
 -9.527  0.193E+00
 -9.517  0.925E-01
 -9.507  0.128E+00
 -9.497  0.212E+00
 -9.487  0.254E+00
 -9.477  0.232E+00
 -9.467  0.190E+00
 -9.457  0.148E+00
 -9.447  0.923E-01
 -9.437  0.967E-01
 -9.427  0.117E+00
 -9.417  0.143E+00
 -9.407  0.133E+00
 -9.397  0.223E+00
 -9.387  0.321E+00
 -9.377  0.323E+00
 -9.367  0.368E+00
 -9.357  0.309E+00
 -9.347  0.182E+00
 -9.337  0.186E+00
 -9.327  0.253E+00
 -9.317  0.175E+00
 -9.307  0.567E-01
 -9.297  0.643E-01
 -9.287  0.185E+00
 -9.277  0.271E+00
 -9.267  0.323E+00
 -9.257  0.344E+00
 -9.247  0.201E+00
 -9.237  0.135E+00
 -9.227  0.109E+00
 -9.217  0.525E-01
 -9.207  0.543E-01
 -9.197  0.648E-01
 -9.187  0.136E+00
 -9.177  0.359E+00
 -9.167  0.515E+00
 -9.157  0.544E+00
 -9.147  0.437E+00
 -9.137  0.206E+00
 -9.127  0.205E+00
 -9.117  0.337E+00
 -9.107  0.270E+00
 -9.097  0.114E+00
 -9.087  0.131E+00
 -9.077  0.221E+00
 -9.067  0.276E+00
 -9.057  0.438E+00
 -9.047  0.387E+00
 -9.037  0.145E+00
 -9.027  0.890E-01
 -9.017  0.150E+00
 -9.007  0.274E+00
 -8.997  0.595E+00
 -8.987  0.868E+00
 -8.977  0.655E+00
 -8.967  0.313E+00
 -8.957  0.239E+00
 -8.947  0.170E+00
 -8.937  0.108E+00
 -8.927  0.202E+00
 -8.917  0.343E+00
 -8.907  0.387E+00
 -8.897  0.335E+00
 -8.887  0.237E+00
 -8.877  0.984E-01
 -8.867  0.640E-01
 -8.857  0.174E+00
 -8.847  0.214E+00
 -8.837  0.955E-01
 -8.827  0.654E-01
 -8.817  0.165E+00
 -8.807  0.197E+00
 -8.797  0.148E+00
 -8.787  0.120E+00
 -8.777  0.887E-01
 -8.767  0.495E-01
 -8.757  0.317E-01
 -8.747  0.702E-01
 -8.737  0.122E+00
 -8.727  0.131E+00
 -8.717  0.117E+00
 -8.707  0.855E-01
 -8.697  0.496E-01
 -8.687  0.580E-01
 -8.677  0.878E-01
 -8.667  0.109E+00
 -8.657  0.863E-01
 -8.647  0.466E-01
 -8.637  0.509E-01
 -8.627  0.868E-01
 -8.617  0.805E-01
 -8.607  0.343E-01
 -8.597  0.146E-01
 -8.587  0.126E-01
 -8.577  0.117E-01
 -8.567  0.250E-01
 -8.557  0.516E-01
 -8.547  0.462E-01
 -8.537  0.190E-01
 -8.527  0.670E-02
 -8.517  0.697E-02
 -8.507  0.102E-01
 -8.497  0.913E-02
 -8.487  0.112E-01
 -8.477  0.191E-01
 -8.467  0.330E-01
 -8.457  0.354E-01
 -8.447  0.257E-01
 -8.437  0.190E-01
 -8.427  0.263E-01
 -8.417  0.508E-01
 -8.407  0.641E-01
 -8.397  0.547E-01
 -8.387  0.381E-01
 -8.377  0.288E-01
 -8.367  0.324E-01
 -8.357  0.442E-01
 -8.347  0.431E-01
 -8.337  0.391E-01
 -8.327  0.602E-01
 -8.317  0.693E-01
 -8.307  0.423E-01
 -8.297  0.317E-01
 -8.287  0.273E-01
 -8.277  0.144E-01
 -8.267  0.988E-02
 -8.257  0.170E-01
 -8.247  0.313E-01
 -8.237  0.403E-01
 -8.227  0.452E-01
 -8.217  0.621E-01
 -8.207  0.973E-01
 -8.197  0.105E+00
 -8.187  0.104E+00
 -8.177  0.869E-01
 -8.167  0.580E-01
 -8.157  0.695E-01
 -8.147  0.108E+00
 -8.137  0.966E-01
 -8.127  0.104E+00
 -8.117  0.207E+00
 -8.107  0.273E+00
 -8.097  0.270E+00
 -8.087  0.259E+00
 -8.077  0.241E+00
 -8.067  0.197E+00
 -8.057  0.199E+00
 -8.047  0.309E+00
 -8.037  0.301E+00
 -8.027  0.197E+00
 -8.017  0.200E+00
 -8.007  0.222E+00
 -7.997  0.238E+00
 -7.987  0.244E+00
 -7.977  0.181E+00
 -7.967  0.913E-01
 -7.957  0.118E+00
 -7.947  0.186E+00
 -7.937  0.282E+00
 -7.927  0.403E+00
 -7.917  0.351E+00
 -7.907  0.254E+00
 -7.897  0.267E+00
 -7.887  0.361E+00
 -7.877  0.376E+00
 -7.867  0.205E+00
 -7.857  0.667E-01
 -7.847  0.243E-01
 -7.837  0.248E-01
 -7.827  0.844E-01
 -7.817  0.135E+00
 -7.807  0.115E+00
 -7.797  0.966E-01
 -7.787  0.652E-01
 -7.777  0.711E-01
 -7.767  0.107E+00
 -7.757  0.107E+00
 -7.747  0.730E-01
 -7.737  0.668E-01
 -7.727  0.121E+00
 -7.717  0.111E+00
 -7.707  0.670E-01
 -7.697  0.818E-01
 -7.687  0.100E+00
 -7.677  0.763E-01
 -7.667  0.448E-01
 -7.657  0.280E-01
 -7.647  0.194E-01
 -7.637  0.605E-01
 -7.627  0.130E+00
 -7.617  0.115E+00
 -7.607  0.683E-01
 -7.597  0.963E-01
 -7.587  0.128E+00
 -7.577  0.957E-01
 -7.567  0.417E-01
 -7.557  0.319E-01
 -7.547  0.537E-01
 -7.537  0.630E-01
 -7.527  0.445E-01
 -7.517  0.272E-01
 -7.507  0.392E-01
 -7.497  0.692E-01
 -7.487  0.679E-01
 -7.477  0.811E-01
 -7.467  0.125E+00
 -7.457  0.111E+00
 -7.447  0.716E-01
 -7.437  0.517E-01
 -7.427  0.355E-01
 -7.417  0.265E-01
 -7.407  0.239E-01
 -7.397  0.379E-01
 -7.387  0.624E-01
 -7.377  0.637E-01
 -7.367  0.301E-01
 -7.357  0.150E-01
 -7.347  0.317E-01
 -7.337  0.540E-01
 -7.327  0.531E-01
 -7.317  0.468E-01
 -7.307  0.528E-01
 -7.297  0.534E-01
 -7.287  0.434E-01
 -7.277  0.277E-01
 -7.267  0.296E-01
 -7.257  0.421E-01
 -7.247  0.605E-01
 -7.237  0.909E-01
 -7.227  0.103E+00
 -7.217  0.711E-01
 -7.207  0.383E-01
 -7.197  0.435E-01
 -7.187  0.610E-01
 -7.177  0.689E-01
 -7.167  0.765E-01
 -7.157  0.780E-01
 -7.147  0.846E-01
 -7.137  0.876E-01
 -7.127  0.705E-01
 -7.117  0.492E-01
 -7.107  0.468E-01
 -7.097  0.872E-01
 -7.087  0.118E+00
 -7.077  0.927E-01
 -7.067  0.756E-01
 -7.057  0.682E-01
 -7.047  0.646E-01
 -7.037  0.774E-01
 -7.027  0.651E-01
 -7.017  0.425E-01
 -7.007  0.274E-01
 -6.997  0.356E-01
 -6.987  0.633E-01
 -6.977  0.771E-01
 -6.967  0.686E-01
 -6.957  0.533E-01
 -6.947  0.452E-01
 -6.937  0.567E-01
 -6.927  0.625E-01
 -6.917  0.733E-01
 -6.907  0.794E-01
 -6.897  0.466E-01
 -6.887  0.226E-01
 -6.877  0.400E-01
 -6.867  0.503E-01
 -6.857  0.258E-01
 -6.847  0.170E-01
 -6.837  0.468E-01
 -6.827  0.852E-01
 -6.817  0.802E-01
 -6.807  0.477E-01
 -6.797  0.434E-01
 -6.787  0.435E-01
 -6.777  0.350E-01
 -6.767  0.403E-01
 -6.757  0.386E-01
 -6.747  0.428E-01
 -6.737  0.615E-01
 -6.727  0.512E-01
 -6.717  0.321E-01
 -6.707  0.211E-01
 -6.697  0.161E-01
 -6.687  0.442E-01
 -6.677  0.888E-01
 -6.667  0.792E-01
 -6.657  0.369E-01
 -6.647  0.196E-01
 -6.637  0.239E-01
 -6.627  0.430E-01
 -6.617  0.596E-01
 -6.607  0.457E-01
 -6.597  0.237E-01
 -6.587  0.316E-01
 -6.577  0.591E-01
 -6.567  0.533E-01
 -6.557  0.245E-01
 -6.547  0.169E-01
 -6.537  0.352E-01
 -6.527  0.401E-01
 -6.517  0.217E-01
 -6.507  0.234E-01
 -6.497  0.340E-01
 -6.487  0.229E-01
 -6.477  0.107E-01
 -6.467  0.575E-02
 -6.457  0.204E-02
 -6.447  0.733E-03
 -6.437  0.110E-02
 -6.427  0.582E-02
 -6.417  0.209E-01
 -6.407  0.303E-01
 -6.397  0.282E-01
 -6.387  0.410E-01
 -6.377  0.377E-01
 -6.367  0.128E-01
 -6.357  0.176E-02
 -6.347  0.313E-02
 -6.337  0.126E-01
 -6.327  0.244E-01
 -6.317  0.348E-01
 -6.307  0.307E-01
 -6.297  0.126E-01
 -6.287  0.257E-02
 -6.277  0.259E-03
 -6.267  0.109E-04
 -6.257  0.126E-05
 -6.247  0.720E-04
 -6.237  0.162E-02
 -6.227  0.123E-01
 -6.217  0.321E-01
 -6.207  0.293E-01
 -6.197  0.124E-01
 -6.187  0.554E-02
 -6.177  0.188E-02
 -6.167  0.695E-03
 -6.157  0.587E-02
 -6.147  0.258E-01
 -6.137  0.387E-01
 -6.127  0.212E-01
 -6.117  0.130E-01
 -6.107  0.194E-01
 -6.097  0.130E-01
 -6.087  0.416E-02
 -6.077  0.454E-02
 -6.067  0.520E-02
 -6.057  0.214E-02
 -6.047  0.592E-03
 -6.037  0.197E-02
 -6.027  0.487E-02
 -6.017  0.756E-02
 -6.007  0.130E-01
 -5.997  0.161E-01
 -5.987  0.122E-01
 -5.977  0.124E-01
 -5.967  0.171E-01
 -5.957  0.132E-01
 -5.947  0.121E-01
 -5.937  0.181E-01
 -5.927  0.298E-01
 -5.917  0.457E-01
 -5.907  0.420E-01
 -5.897  0.278E-01
 -5.887  0.202E-01
 -5.877  0.196E-01
 -5.867  0.260E-01
 -5.857  0.380E-01
 -5.847  0.426E-01
 -5.837  0.291E-01
 -5.827  0.181E-01
 -5.817  0.224E-01
 -5.807  0.524E-01
 -5.797  0.180E+00
 -5.787  0.395E+00
 -5.777  0.637E+00
 -5.767  0.884E+00
 -5.757  0.988E+00
 -5.747  0.943E+00
 -5.737  0.811E+00
 -5.727  0.767E+00
 -5.717  0.824E+00
 -5.707  0.762E+00
 -5.697  0.627E+00
 -5.687  0.411E+00
 -5.677  0.182E+00
 -5.667  0.175E+00
 -5.657  0.234E+00
 -5.647  0.175E+00
 -5.637  0.131E+00
 -5.627  0.150E+00
 -5.617  0.164E+00
 -5.607  0.195E+00
 -5.597  0.217E+00
 -5.587  0.209E+00
 -5.577  0.196E+00
 -5.567  0.132E+00
 -5.557  0.623E-01
 -5.547  0.800E-01
 -5.537  0.967E-01
 -5.527  0.431E-01
 -5.517  0.102E-01
 -5.507  0.282E-01
 -5.497  0.100E+00
 -5.487  0.168E+00
 -5.477  0.122E+00
 -5.467  0.360E-01
 -5.457  0.637E-02
 -5.447  0.183E-01
 -5.437  0.710E-01
 -5.427  0.101E+00
 -5.417  0.516E-01
 -5.407  0.325E-01
 -5.397  0.852E-01
 -5.387  0.119E+00
 -5.377  0.121E+00
 -5.367  0.102E+00
 -5.357  0.414E-01
 -5.347  0.902E-02
 -5.337  0.227E-02
 -5.327  0.100E-02
 -5.317  0.847E-02
 -5.307  0.494E-01
 -5.297  0.100E+00
 -5.287  0.697E-01
 -5.277  0.176E-01
 -5.267  0.640E-02
 -5.257  0.206E-01
 -5.247  0.485E-01
 -5.237  0.439E-01
 -5.227  0.260E-01
 -5.217  0.464E-01
 -5.207  0.599E-01
 -5.197  0.386E-01
 -5.187  0.148E-01
 -5.177  0.853E-02
 -5.167  0.256E-01
 -5.157  0.768E-01
 -5.147  0.105E+00
 -5.137  0.610E-01
 -5.127  0.572E-01
 -5.117  0.964E-01
 -5.107  0.670E-01
 -5.097  0.172E-01
 -5.087  0.297E-02
 -5.077  0.840E-03
 -5.067  0.101E-02
 -5.057  0.300E-02
 -5.047  0.626E-02
 -5.037  0.102E-01
 -5.027  0.188E-01
 -5.017  0.426E-01
 -5.007  0.866E-01
 -4.997  0.785E-01
 -4.987  0.259E-01
 -4.977  0.723E-02
 -4.967  0.108E-01
 -4.957  0.915E-02
 -4.947  0.358E-02
 -4.937  0.923E-02
 -4.927  0.345E-01
 -4.917  0.494E-01
 -4.907  0.328E-01
 -4.897  0.253E-01
 -4.887  0.455E-01
 -4.877  0.839E-01
 -4.867  0.694E-01
 -4.857  0.251E-01
 -4.847  0.103E-01
 -4.837  0.105E-01
 -4.827  0.905E-02
 -4.817  0.491E-02
 -4.807  0.332E-02
 -4.797  0.880E-02
 -4.787  0.305E-01
 -4.777  0.470E-01
 -4.767  0.303E-01
 -4.757  0.149E-01
 -4.747  0.145E-01
 -4.737  0.268E-01
 -4.727  0.383E-01
 -4.717  0.228E-01
 -4.707  0.101E-01
 -4.697  0.131E-01
 -4.687  0.124E-01
 -4.677  0.565E-02
 -4.667  0.495E-02
 -4.657  0.758E-02
 -4.647  0.115E-01
 -4.637  0.185E-01
 -4.627  0.193E-01
 -4.617  0.186E-01
 -4.607  0.118E-01
 -4.597  0.501E-02
 -4.587  0.905E-02
 -4.577  0.142E-01
 -4.567  0.135E-01
 -4.557  0.126E-01
 -4.547  0.913E-02
 -4.537  0.484E-02
 -4.527  0.351E-02
 -4.517  0.456E-02
 -4.507  0.484E-02
 -4.497  0.579E-02
 -4.487  0.925E-02
 -4.477  0.103E-01
 -4.467  0.164E-01
 -4.457  0.203E-01
 -4.447  0.125E-01
 -4.437  0.113E-01
 -4.427  0.192E-01
 -4.417  0.191E-01
 -4.407  0.852E-02
 -4.397  0.236E-02
 -4.387  0.240E-02
 -4.377  0.281E-02
 -4.367  0.181E-02
 -4.357  0.323E-02
 -4.347  0.100E-01
 -4.337  0.243E-01
 -4.327  0.326E-01
 -4.317  0.237E-01
 -4.307  0.134E-01
 -4.297  0.101E-01
 -4.287  0.965E-02
 -4.277  0.676E-02
 -4.267  0.439E-02
 -4.257  0.466E-02
 -4.247  0.455E-02
 -4.237  0.470E-02
 -4.227  0.350E-02
 -4.217  0.196E-02
 -4.207  0.418E-02
 -4.197  0.101E-01
 -4.187  0.151E-01
 -4.177  0.130E-01
 -4.167  0.114E-01
 -4.157  0.143E-01
 -4.147  0.144E-01
 -4.137  0.847E-02
 -4.127  0.257E-02
 -4.117  0.202E-02
 -4.107  0.487E-02
 -4.097  0.481E-02
 -4.087  0.223E-02
 -4.077  0.175E-02
 -4.067  0.233E-02
 -4.057  0.588E-02
 -4.047  0.141E-01
 -4.037  0.174E-01
 -4.027  0.135E-01
 -4.017  0.827E-02
 -4.007  0.450E-02
 -3.997  0.604E-02
 -3.987  0.656E-02
 -3.977  0.355E-02
 -3.967  0.131E-02
 -3.957  0.852E-03
 -3.947  0.114E-02
 -3.937  0.129E-02
 -3.927  0.348E-02
 -3.917  0.105E-01
 -3.907  0.136E-01
 -3.897  0.757E-02
 -3.887  0.335E-02
 -3.877  0.334E-02
 -3.867  0.240E-02
 -3.857  0.209E-02
 -3.847  0.354E-02
 -3.837  0.308E-02
 -3.827  0.231E-02
 -3.817  0.274E-02
 -3.807  0.456E-02
 -3.797  0.717E-02
 -3.787  0.542E-02
 -3.777  0.273E-02
 -3.767  0.326E-02
 -3.757  0.444E-02
 -3.747  0.567E-02
 -3.737  0.430E-02
 -3.727  0.143E-02
 -3.717  0.821E-03
 -3.707  0.184E-02
 -3.697  0.374E-02
 -3.687  0.436E-02
 -3.677  0.207E-02
 -3.667  0.366E-03
 -3.657  0.100E-03
 -3.647  0.897E-03
 -3.637  0.365E-02
 -3.627  0.533E-02
 -3.617  0.345E-02
 -3.607  0.277E-02
 -3.597  0.327E-02
 -3.587  0.288E-02
 -3.577  0.271E-02
 -3.567  0.373E-02
 -3.557  0.397E-02
 -3.547  0.238E-02
 -3.537  0.202E-02
 -3.527  0.221E-02
 -3.517  0.220E-02
 -3.507  0.210E-02
 -3.497  0.126E-02
 -3.487  0.674E-03
 -3.477  0.331E-03
 -3.467  0.875E-04
 -3.457  0.997E-05
 -3.447  0.436E-06
 -3.437  0.685E-08
 -3.427  0.373E-10
 -3.417  0.696E-13
 -3.407  0.444E-16
 -3.397  0.000E+00
 -3.387  0.000E+00
 -3.377  0.000E+00
 -3.367  0.000E+00
 -3.357  0.000E+00
 -3.347  0.000E+00
 -3.337  0.000E+00
 -3.327  0.000E+00
 -3.317  0.000E+00
 -3.307  0.000E+00
 -3.297  0.000E+00
 -3.287  0.000E+00
 -3.277  0.000E+00
 -3.267  0.000E+00
 -3.257  0.000E+00
 -3.247  0.000E+00
 -3.237  0.000E+00
 -3.227  0.000E+00
 -3.217  0.000E+00
 -3.207  0.000E+00
 -3.197  0.000E+00
 -3.187  0.000E+00
 -3.177  0.000E+00
 -3.167  0.000E+00
 -3.157  0.000E+00
 -3.147  0.000E+00
 -3.137  0.000E+00
 -3.127  0.000E+00
 -3.117  0.000E+00
 -3.107  0.000E+00
 -3.097  0.000E+00
 -3.087  0.000E+00
 -3.077  0.000E+00
 -3.067  0.000E+00
 -3.057  0.000E+00
 -3.047  0.000E+00
 -3.037  0.000E+00
 -3.027  0.000E+00
 -3.017  0.000E+00
 -3.007  0.000E+00
 -2.997  0.000E+00
 -2.987  0.000E+00
 -2.977  0.000E+00
 -2.967  0.000E+00
 -2.957  0.000E+00
 -2.947  0.000E+00
 -2.937  0.000E+00
 -2.927  0.000E+00
 -2.917  0.000E+00
 -2.907  0.000E+00
 -2.897  0.000E+00
 -2.887  0.000E+00
 -2.877  0.000E+00
 -2.867  0.000E+00
 -2.857  0.000E+00
 -2.847  0.000E+00
 -2.837  0.000E+00
 -2.827  0.000E+00
 -2.817  0.000E+00
 -2.807  0.000E+00
 -2.797  0.000E+00
 -2.787  0.000E+00
 -2.777  0.000E+00
 -2.767  0.000E+00
 -2.757  0.000E+00
 -2.747  0.000E+00
 -2.737  0.000E+00
 -2.727  0.000E+00
 -2.717  0.000E+00
 -2.707  0.000E+00
 -2.697  0.000E+00
 -2.687  0.000E+00
 -2.677  0.000E+00
 -2.667  0.000E+00
 -2.657  0.000E+00
 -2.647  0.000E+00
 -2.637  0.000E+00
 -2.627  0.000E+00
 -2.617  0.000E+00
 -2.607  0.000E+00
 -2.597  0.000E+00
 -2.587  0.000E+00
 -2.577  0.000E+00
 -2.567  0.000E+00
 -2.557  0.000E+00
 -2.547  0.000E+00
 -2.537  0.000E+00
 -2.527  0.000E+00
 -2.517  0.000E+00
 -2.507  0.000E+00
 -2.497  0.000E+00
 -2.487  0.000E+00
 -2.477  0.000E+00
 -2.467  0.000E+00
 -2.457  0.000E+00
 -2.447  0.000E+00
 -2.437  0.000E+00
 -2.427  0.000E+00
 -2.417  0.000E+00
 -2.407  0.000E+00
 -2.397  0.000E+00
 -2.387  0.000E+00
 -2.377  0.000E+00
 -2.367  0.000E+00
 -2.357  0.000E+00
 -2.347  0.000E+00
 -2.337  0.000E+00
 -2.327  0.000E+00
 -2.317  0.000E+00
 -2.307  0.000E+00
 -2.297  0.000E+00
 -2.287  0.000E+00
 -2.277  0.000E+00
 -2.267  0.000E+00
 -2.257  0.000E+00
 -2.247  0.000E+00
 -2.237  0.000E+00
 -2.227  0.203E-15
 -2.217  0.278E-12
 -2.207  0.129E-09
 -2.197  0.204E-07
 -2.187  0.109E-05
 -2.177  0.200E-04
 -2.167  0.129E-03
 -2.157  0.346E-03
 -2.147  0.588E-03
 -2.137  0.738E-03
 -2.127  0.701E-03
 -2.117  0.602E-03
 -2.107  0.285E-03
 -2.097  0.298E-03
 -2.087  0.108E-02
 -2.077  0.154E-02
 -2.067  0.765E-03
 -2.057  0.238E-03
 -2.047  0.687E-03
 -2.037  0.177E-02
 -2.027  0.199E-02
 -2.017  0.157E-02
 -2.007  0.180E-02
 -1.997  0.204E-02
 -1.987  0.227E-02
 -1.977  0.531E-02
 -1.967  0.126E-01
 -1.957  0.153E-01
 -1.947  0.177E-01
 -1.937  0.211E-01
 -1.927  0.149E-01
 -1.917  0.106E-01
 -1.907  0.161E-01
 -1.897  0.198E-01
 -1.887  0.243E-01
 -1.877  0.241E-01
 -1.867  0.173E-01