# E (eV) pdos(E) 
-17.637  0.312E-06
-17.627  0.151E-04
-17.617  0.255E-03
-17.607  0.164E-02
-17.597  0.493E-02
-17.587  0.840E-02
-17.577  0.937E-02
-17.567  0.190E-01
-17.557  0.387E-01
-17.547  0.398E-01
-17.537  0.270E-01
-17.527  0.339E-01
-17.517  0.556E-01
-17.507  0.373E-01
-17.497  0.157E-01
-17.487  0.440E-01
-17.477  0.103E+00
-17.467  0.123E+00
-17.457  0.826E-01
-17.447  0.507E-01
-17.437  0.679E-01
-17.427  0.746E-01
-17.417  0.588E-01
-17.407  0.818E-01
-17.397  0.107E+00
-17.387  0.559E-01
-17.377  0.358E-01
-17.367  0.109E+00
-17.357  0.190E+00
-17.347  0.176E+00
-17.337  0.117E+00
-17.327  0.130E+00
-17.317  0.114E+00
-17.307  0.522E-01
-17.297  0.102E+00
-17.287  0.208E+00
-17.277  0.149E+00
-17.267  0.372E-01
-17.257  0.178E-01
-17.247  0.817E-01
-17.237  0.157E+00
-17.227  0.145E+00
-17.217  0.190E+00
-17.207  0.263E+00
-17.197  0.217E+00
-17.187  0.158E+00
-17.177  0.174E+00
-17.167  0.109E+00
-17.157  0.667E-01
-17.147  0.157E+00
-17.137  0.217E+00
-17.127  0.160E+00
-17.117  0.145E+00
-17.107  0.222E+00
-17.097  0.201E+00
-17.087  0.887E-01
-17.077  0.177E-01
-17.067  0.516E-02
-17.057  0.521E-01
-17.047  0.253E+00
-17.037  0.469E+00
-17.027  0.394E+00
-17.017  0.233E+00
-17.007  0.209E+00
-16.997  0.147E+00
-16.987  0.943E-01
-16.977  0.172E+00
-16.967  0.167E+00
-16.957  0.903E-01
-16.947  0.180E+00
-16.937  0.339E+00
-16.927  0.280E+00
-16.917  0.120E+00
-16.907  0.135E+00
-16.897  0.211E+00
-16.887  0.172E+00
-16.877  0.119E+00
-16.867  0.661E-01
-16.857  0.110E+00
-16.847  0.288E+00
-16.837  0.387E+00
-16.827  0.405E+00
-16.817  0.438E+00
-16.807  0.270E+00
-16.797  0.168E+00
-16.787  0.205E+00
-16.777  0.122E+00
-16.767  0.707E-01
-16.757  0.202E+00
-16.747  0.321E+00
-16.737  0.282E+00
-16.727  0.244E+00
-16.717  0.194E+00
-16.707  0.211E+00
-16.697  0.169E+00
-16.687  0.135E+00
-16.677  0.204E+00
-16.667  0.178E+00
-16.657  0.210E+00
-16.647  0.389E+00
-16.637  0.438E+00
-16.627  0.341E+00
-16.617  0.258E+00
-16.607  0.246E+00
-16.597  0.379E+00
-16.587  0.320E+00
-16.577  0.177E+00
-16.567  0.205E+00
-16.557  0.195E+00
-16.547  0.227E+00
-16.537  0.311E+00
-16.527  0.327E+00
-16.517  0.298E+00
-16.507  0.197E+00
-16.497  0.124E+00
-16.487  0.180E+00
-16.477  0.174E+00
-16.467  0.191E+00
-16.457  0.351E+00
-16.447  0.520E+00
-16.437  0.546E+00
-16.427  0.399E+00
-16.417  0.276E+00
-16.407  0.224E+00
-16.397  0.238E+00
-16.387  0.341E+00
-16.377  0.272E+00
-16.367  0.237E+00
-16.357  0.341E+00
-16.347  0.349E+00
-16.337  0.286E+00
-16.327  0.277E+00
-16.317  0.258E+00
-16.307  0.175E+00
-16.297  0.158E+00
-16.287  0.182E+00
-16.277  0.347E+00
-16.267  0.617E+00
-16.257  0.619E+00
-16.247  0.429E+00
-16.237  0.303E+00
-16.227  0.284E+00
-16.217  0.287E+00
-16.207  0.233E+00
-16.197  0.267E+00
-16.187  0.385E+00
-16.177  0.382E+00
-16.167  0.276E+00
-16.157  0.198E+00
-16.147  0.128E+00
-16.137  0.130E+00
-16.127  0.345E+00
-16.117  0.708E+00
-16.107  0.638E+00
-16.097  0.246E+00
-16.087  0.519E-01
-16.077  0.741E-01
-16.067  0.228E+00
-16.057  0.315E+00
-16.047  0.170E+00
-16.037  0.792E-01
-16.027  0.181E+00
-16.017  0.404E+00
-16.007  0.407E+00
-15.997  0.178E+00
-15.987  0.121E+00
-15.977  0.176E+00
-15.967  0.181E+00
-15.957  0.395E+00
-15.947  0.128E+01
-15.937  0.234E+01
-15.927  0.248E+01
-15.917  0.199E+01
-15.907  0.156E+01
-15.897  0.129E+01
-15.887  0.112E+01
-15.877  0.102E+01
-15.867  0.975E+00
-15.857  0.961E+00
-15.847  0.981E+00
-15.837  0.101E+01
-15.827  0.107E+01
-15.817  0.113E+01
-15.807  0.121E+01
-15.797  0.128E+01
-15.787  0.137E+01
-15.777  0.147E+01
-15.767  0.153E+01
-15.757  0.135E+01
-15.747  0.760E+00
-15.737  0.208E+00
-15.727  0.234E-01
-15.717  0.996E-03
-15.707  0.154E-04
-15.697  0.848E-07
-15.687  0.163E-09
-15.677  0.101E-12
-15.667  0.000E+00
-15.657  0.000E+00
-15.647  0.000E+00
-15.637  0.000E+00
-15.627  0.000E+00
-15.617  0.000E+00
-15.607  0.000E+00
-15.597  0.000E+00
-15.587  0.000E+00
-15.577  0.000E+00
-15.567  0.000E+00
-15.557  0.000E+00
-15.547  0.000E+00
-15.537  0.000E+00
-15.527  0.000E+00
-15.517  0.000E+00
-15.507  0.000E+00
-15.497  0.000E+00
-15.487  0.000E+00
-15.477  0.000E+00
-15.467  0.000E+00
-15.457  0.000E+00
-15.447  0.000E+00
-15.437  0.000E+00
-15.427  0.000E+00
-15.417  0.000E+00
-15.407  0.000E+00
-15.397  0.000E+00
-15.387  0.000E+00
-15.377  0.000E+00
-15.367  0.000E+00
-15.357  0.000E+00
-15.347  0.000E+00
-15.337  0.000E+00
-15.327  0.000E+00
-15.317  0.000E+00
-15.307  0.000E+00
-15.297  0.000E+00
-15.287  0.000E+00
-15.277  0.000E+00
-15.267  0.000E+00
-15.257  0.000E+00
-15.247  0.000E+00
-15.237  0.000E+00
-15.227  0.000E+00
-15.217  0.000E+00
-15.207  0.000E+00
-15.197  0.000E+00
-15.187  0.000E+00
-15.177  0.000E+00
-15.167  0.000E+00
-15.157  0.000E+00
-15.147  0.000E+00
-15.137  0.000E+00
-15.127  0.000E+00
-15.117  0.000E+00
-15.107  0.000E+00
-15.097  0.000E+00
-15.087  0.000E+00
-15.077  0.000E+00
-15.067  0.000E+00
-15.057  0.000E+00
-15.047  0.000E+00
-15.037  0.000E+00
-15.027  0.000E+00
-15.017  0.000E+00
-15.007  0.000E+00
-14.997  0.000E+00
-14.987  0.000E+00
-14.977  0.000E+00
-14.967  0.000E+00
-14.957  0.000E+00
-14.947  0.000E+00
-14.937  0.000E+00
-14.927  0.000E+00
-14.917  0.000E+00
-14.907  0.000E+00
-14.897  0.000E+00
-14.887  0.000E+00
-14.877  0.000E+00
-14.867  0.000E+00
-14.857  0.000E+00
-14.847  0.000E+00
-14.837  0.000E+00
-14.827  0.000E+00
-14.817  0.000E+00
-14.807  0.000E+00
-14.797  0.000E+00
-14.787  0.000E+00
-14.777  0.000E+00
-14.767  0.000E+00
-14.757  0.000E+00
-14.747  0.000E+00
-14.737  0.000E+00
-14.727  0.000E+00
-14.717  0.000E+00
-14.707  0.000E+00
-14.697  0.000E+00
-14.687  0.000E+00
-14.677  0.000E+00
-14.667  0.000E+00
-14.657  0.000E+00
-14.647  0.000E+00
-14.637  0.000E+00
-14.627  0.000E+00
-14.617  0.000E+00
-14.607  0.000E+00
-14.597  0.000E+00
-14.587  0.000E+00
-14.577  0.000E+00
-14.567  0.000E+00
-14.557  0.000E+00
-14.547  0.000E+00
-14.537  0.000E+00
-14.527  0.000E+00
-14.517  0.000E+00
-14.507  0.000E+00
-14.497  0.000E+00
-14.487  0.000E+00
-14.477  0.000E+00
-14.467  0.000E+00
-14.457  0.000E+00
-14.447  0.000E+00
-14.437  0.000E+00
-14.427  0.000E+00
-14.417  0.000E+00
-14.407  0.000E+00
-14.397  0.000E+00
-14.387  0.000E+00
-14.377  0.000E+00
-14.367  0.000E+00
-14.357  0.000E+00
-14.347  0.000E+00
-14.337  0.000E+00
-14.327  0.000E+00
-14.317  0.000E+00
-14.307  0.000E+00
-14.297  0.000E+00
-14.287  0.000E+00
-14.277  0.000E+00
-14.267  0.000E+00
-14.257  0.000E+00
-14.247  0.000E+00
-14.237  0.000E+00
-14.227  0.000E+00
-14.217  0.000E+00
-14.207  0.000E+00
-14.197  0.000E+00
-14.187  0.000E+00
-14.177  0.000E+00
-14.167  0.000E+00
-14.157  0.000E+00
-14.147  0.000E+00
-14.137  0.000E+00
-14.127  0.000E+00
-14.117  0.000E+00
-14.107  0.000E+00
-14.097  0.000E+00
-14.087  0.000E+00
-14.077  0.000E+00
-14.067  0.000E+00
-14.057  0.000E+00
-14.047  0.000E+00
-14.037  0.000E+00
-14.027  0.000E+00
-14.017  0.000E+00
-14.007  0.000E+00
-13.997  0.000E+00
-13.987  0.000E+00
-13.977  0.000E+00
-13.967  0.000E+00
-13.957  0.000E+00
-13.947  0.000E+00
-13.937  0.000E+00
-13.927  0.000E+00
-13.917  0.000E+00
-13.907  0.000E+00
-13.897  0.000E+00
-13.887  0.000E+00
-13.877  0.000E+00
-13.867  0.000E+00
-13.857  0.000E+00
-13.847  0.000E+00
-13.837  0.000E+00
-13.827  0.000E+00
-13.817  0.000E+00
-13.807  0.000E+00
-13.797  0.000E+00
-13.787  0.000E+00
-13.777  0.000E+00
-13.767  0.000E+00
-13.757  0.000E+00
-13.747  0.000E+00
-13.737  0.000E+00
-13.727  0.000E+00
-13.717  0.000E+00
-13.707  0.000E+00
-13.697  0.000E+00
-13.687  0.000E+00
-13.677  0.000E+00
-13.667  0.000E+00
-13.657  0.000E+00
-13.647  0.000E+00
-13.637  0.000E+00
-13.627  0.000E+00
-13.617  0.000E+00
-13.607  0.000E+00
-13.597  0.000E+00
-13.587  0.000E+00
-13.577  0.000E+00
-13.567  0.000E+00
-13.557  0.000E+00
-13.547  0.000E+00
-13.537  0.000E+00
-13.527  0.000E+00
-13.517  0.000E+00
-13.507  0.000E+00
-13.497  0.000E+00
-13.487  0.000E+00
-13.477  0.000E+00
-13.467  0.000E+00
-13.457  0.000E+00
-13.447  0.000E+00
-13.437  0.000E+00
-13.427  0.000E+00
-13.417  0.000E+00
-13.407  0.000E+00
-13.397  0.000E+00
-13.387  0.000E+00
-13.377  0.000E+00
-13.367  0.000E+00
-13.357  0.000E+00
-13.347  0.000E+00
-13.337  0.000E+00
-13.327  0.000E+00
-13.317  0.000E+00
-13.307  0.000E+00
-13.297  0.000E+00
-13.287  0.000E+00
-13.277  0.000E+00
-13.267  0.000E+00
-13.257  0.000E+00
-13.247  0.000E+00
-13.237  0.000E+00
-13.227  0.000E+00
-13.217  0.000E+00
-13.207  0.000E+00
-13.197  0.000E+00
-13.187  0.000E+00
-13.177  0.000E+00
-13.167  0.000E+00
-13.157  0.000E+00
-13.147  0.000E+00
-13.137  0.000E+00
-13.127  0.000E+00
-13.117  0.000E+00
-13.107  0.000E+00
-13.097  0.000E+00
-13.087  0.000E+00
-13.077  0.000E+00
-13.067  0.000E+00
-13.057  0.000E+00
-13.047  0.000E+00
-13.037  0.000E+00
-13.027  0.000E+00
-13.017  0.000E+00
-13.007  0.000E+00
-12.997  0.000E+00
-12.987  0.000E+00
-12.977  0.000E+00
-12.967  0.000E+00
-12.957  0.000E+00
-12.947  0.000E+00
-12.937  0.000E+00
-12.927  0.000E+00
-12.917  0.000E+00
-12.907  0.000E+00
-12.897  0.000E+00
-12.887  0.000E+00
-12.877  0.000E+00
-12.867  0.000E+00
-12.857  0.000E+00
-12.847  0.000E+00
-12.837  0.000E+00
-12.827  0.000E+00
-12.817  0.000E+00
-12.807  0.000E+00
-12.797  0.000E+00
-12.787  0.000E+00
-12.777  0.000E+00
-12.767  0.000E+00
-12.757  0.000E+00
-12.747  0.000E+00
-12.737  0.000E+00
-12.727  0.000E+00
-12.717  0.000E+00
-12.707  0.000E+00
-12.697  0.000E+00
-12.687  0.000E+00
-12.677  0.000E+00
-12.667  0.000E+00
-12.657  0.000E+00
-12.647  0.000E+00
-12.637  0.000E+00
-12.627  0.000E+00
-12.617  0.000E+00
-12.607  0.000E+00
-12.597  0.000E+00
-12.587  0.000E+00
-12.577  0.000E+00
-12.567  0.000E+00
-12.557  0.000E+00
-12.547  0.000E+00
-12.537  0.000E+00
-12.527  0.000E+00
-12.517  0.000E+00
-12.507  0.000E+00
-12.497  0.000E+00
-12.487  0.000E+00
-12.477  0.000E+00
-12.467  0.000E+00
-12.457  0.000E+00
-12.447  0.000E+00
-12.437  0.000E+00
-12.427  0.000E+00
-12.417  0.000E+00
-12.407  0.000E+00
-12.397  0.000E+00
-12.387  0.000E+00
-12.377  0.000E+00
-12.367  0.000E+00
-12.357  0.000E+00
-12.347  0.000E+00
-12.337  0.000E+00
-12.327  0.000E+00
-12.317  0.000E+00
-12.307  0.000E+00
-12.297  0.000E+00
-12.287  0.000E+00
-12.277  0.000E+00
-12.267  0.000E+00
-12.257  0.000E+00
-12.247  0.000E+00
-12.237  0.000E+00
-12.227  0.000E+00
-12.217  0.000E+00
-12.207  0.000E+00
-12.197  0.000E+00
-12.187  0.000E+00
-12.177  0.000E+00
-12.167  0.000E+00
-12.157  0.000E+00
-12.147  0.000E+00
-12.137  0.000E+00
-12.127  0.000E+00
-12.117  0.000E+00
-12.107  0.000E+00
-12.097  0.000E+00
-12.087  0.000E+00
-12.077  0.000E+00
-12.067  0.000E+00
-12.057  0.000E+00
-12.047  0.000E+00
-12.037  0.000E+00
-12.027  0.000E+00
-12.017  0.000E+00
-12.007  0.000E+00
-11.997  0.000E+00
-11.987  0.000E+00
-11.977  0.000E+00
-11.967  0.000E+00
-11.957  0.000E+00
-11.947  0.000E+00
-11.937  0.000E+00
-11.927  0.000E+00
-11.917  0.000E+00
-11.907  0.000E+00
-11.897  0.000E+00
-11.887  0.000E+00
-11.877  0.000E+00
-11.867  0.000E+00
-11.857  0.000E+00
-11.847  0.000E+00
-11.837  0.000E+00
-11.827  0.000E+00
-11.817  0.000E+00
-11.807  0.000E+00
-11.797  0.000E+00
-11.787  0.000E+00
-11.777  0.000E+00
-11.767  0.000E+00
-11.757  0.000E+00
-11.747  0.000E+00
-11.737  0.000E+00
-11.727  0.000E+00
-11.717  0.000E+00
-11.707  0.000E+00
-11.697  0.000E+00
-11.687  0.000E+00
-11.677  0.000E+00
-11.667  0.000E+00
-11.657  0.000E+00
-11.647  0.000E+00
-11.637  0.000E+00
-11.627  0.000E+00
-11.617  0.000E+00
-11.607  0.000E+00
-11.597  0.000E+00
-11.587  0.000E+00
-11.577  0.000E+00
-11.567  0.000E+00
-11.557  0.000E+00
-11.547  0.000E+00
-11.537  0.000E+00
-11.527  0.000E+00
-11.517  0.000E+00
-11.507  0.000E+00
-11.497  0.000E+00
-11.487  0.000E+00
-11.477  0.000E+00
-11.467  0.000E+00
-11.457  0.000E+00
-11.447  0.000E+00
-11.437  0.000E+00
-11.427  0.000E+00
-11.417  0.000E+00
-11.407  0.000E+00
-11.397  0.000E+00
-11.387  0.000E+00
-11.377  0.000E+00
-11.367  0.000E+00
-11.357  0.000E+00
-11.347  0.000E+00
-11.337  0.000E+00
-11.327  0.000E+00
-11.317  0.000E+00
-11.307  0.000E+00
-11.297  0.000E+00
-11.287  0.000E+00
-11.277  0.000E+00
-11.267  0.000E+00
-11.257  0.000E+00
-11.247  0.000E+00
-11.237  0.000E+00
-11.227  0.000E+00
-11.217  0.000E+00
-11.207  0.000E+00
-11.197  0.000E+00
-11.187  0.000E+00
-11.177  0.000E+00
-11.167  0.000E+00
-11.157  0.000E+00
-11.147  0.000E+00
-11.137  0.000E+00
-11.127  0.000E+00
-11.117  0.000E+00
-11.107  0.000E+00
-11.097  0.000E+00
-11.087  0.000E+00
-11.077  0.000E+00
-11.067  0.000E+00
-11.057  0.000E+00
-11.047  0.000E+00
-11.037  0.000E+00
-11.027  0.000E+00
-11.017  0.000E+00
-11.007  0.000E+00
-10.997  0.000E+00
-10.987  0.000E+00
-10.977  0.000E+00
-10.967  0.000E+00
-10.957  0.000E+00
-10.947  0.000E+00
-10.937  0.000E+00
-10.927  0.000E+00
-10.917  0.000E+00
-10.907  0.000E+00
-10.897  0.000E+00
-10.887  0.000E+00
-10.877  0.000E+00
-10.867  0.000E+00
-10.857  0.000E+00
-10.847  0.000E+00
-10.837  0.000E+00
-10.827  0.000E+00
-10.817  0.000E+00
-10.807  0.000E+00
-10.797  0.000E+00
-10.787  0.000E+00
-10.777  0.000E+00
-10.767  0.000E+00
-10.757  0.000E+00
-10.747  0.000E+00
-10.737  0.000E+00
-10.727  0.000E+00
-10.717  0.000E+00
-10.707  0.000E+00
-10.697  0.000E+00
-10.687  0.000E+00
-10.677  0.000E+00
-10.667  0.000E+00
-10.657  0.000E+00
-10.647  0.000E+00
-10.637  0.000E+00
-10.627  0.000E+00
-10.617  0.000E+00
-10.607  0.000E+00
-10.597  0.000E+00
-10.587  0.000E+00
-10.577  0.000E+00
-10.567  0.000E+00
-10.557  0.000E+00
-10.547  0.000E+00
-10.537  0.000E+00
-10.527  0.000E+00
-10.517  0.000E+00
-10.507  0.000E+00
-10.497  0.000E+00
-10.487  0.000E+00
-10.477  0.000E+00
-10.467  0.000E+00
-10.457  0.000E+00
-10.447  0.000E+00
-10.437  0.000E+00
-10.427  0.000E+00
-10.417  0.000E+00
-10.407  0.000E+00
-10.397  0.000E+00
-10.387  0.000E+00
-10.377  0.000E+00
-10.367  0.000E+00
-10.357  0.000E+00
-10.347  0.000E+00
-10.337  0.000E+00
-10.327  0.000E+00
-10.317  0.000E+00
-10.307  0.000E+00
-10.297  0.000E+00
-10.287  0.000E+00
-10.277  0.000E+00
-10.267  0.000E+00
-10.257  0.000E+00
-10.247  0.000E+00
-10.237  0.000E+00
-10.227  0.000E+00
-10.217  0.000E+00
-10.207  0.000E+00
-10.197  0.000E+00
-10.187  0.000E+00
-10.177  0.000E+00
-10.167  0.000E+00
-10.157  0.000E+00
-10.147  0.000E+00
-10.137  0.000E+00
-10.127  0.000E+00
-10.117  0.000E+00
-10.107  0.000E+00
-10.097  0.000E+00
-10.087  0.000E+00
-10.077  0.000E+00
-10.067  0.000E+00
-10.057  0.000E+00
-10.047  0.000E+00
-10.037  0.000E+00
-10.027  0.000E+00
-10.017  0.000E+00
-10.007  0.000E+00
 -9.997  0.000E+00
 -9.987  0.000E+00
 -9.977  0.000E+00
 -9.967  0.000E+00
 -9.957  0.000E+00
 -9.947  0.000E+00
 -9.937  0.000E+00
 -9.927  0.000E+00
 -9.917  0.000E+00
 -9.907  0.000E+00
 -9.897  0.000E+00
 -9.887  0.000E+00
 -9.877  0.000E+00
 -9.867  0.000E+00
 -9.857  0.000E+00
 -9.847  0.000E+00
 -9.837  0.000E+00
 -9.827  0.000E+00
 -9.817  0.000E+00
 -9.807  0.000E+00
 -9.797  0.000E+00
 -9.787  0.000E+00
 -9.777  0.000E+00
 -9.767  0.000E+00
 -9.757  0.000E+00
 -9.747  0.000E+00
 -9.737  0.000E+00
 -9.727  0.000E+00
 -9.717  0.952E-14
 -9.707  0.789E-11
 -9.697  0.222E-08
 -9.687  0.213E-06
 -9.677  0.699E-05
 -9.667  0.807E-04
 -9.657  0.357E-03
 -9.647  0.754E-03
 -9.637  0.896E-03
 -9.627  0.647E-03
 -9.617  0.108E-02
 -9.607  0.276E-02
 -9.597  0.323E-02
 -9.587  0.148E-02
 -9.577  0.967E-03
 -9.567  0.336E-02
 -9.557  0.615E-02
 -9.547  0.704E-02
 -9.537  0.631E-02
 -9.527  0.325E-02
 -9.517  0.220E-02
 -9.507  0.588E-02
 -9.497  0.878E-02
 -9.487  0.737E-02
 -9.477  0.653E-02
 -9.467  0.812E-02
 -9.457  0.767E-02
 -9.447  0.546E-02
 -9.437  0.575E-02
 -9.427  0.427E-02
 -9.417  0.300E-02
 -9.407  0.390E-02
 -9.397  0.105E-01
 -9.387  0.158E-01
 -9.377  0.165E-01
 -9.367  0.220E-01
 -9.357  0.217E-01
 -9.347  0.125E-01
 -9.337  0.967E-02
 -9.327  0.152E-01
 -9.317  0.126E-01
 -9.307  0.436E-02
 -9.297  0.391E-02
 -9.287  0.101E-01
 -9.277  0.149E-01
 -9.267  0.236E-01
 -9.257  0.298E-01
 -9.247  0.167E-01
 -9.237  0.777E-02
 -9.227  0.535E-02
 -9.217  0.248E-02
 -9.207  0.245E-02
 -9.197  0.368E-02
 -9.187  0.120E-01
 -9.177  0.334E-01
 -9.167  0.476E-01
 -9.157  0.506E-01
 -9.147  0.414E-01
 -9.137  0.190E-01
 -9.127  0.164E-01
 -9.117  0.280E-01
 -9.107  0.245E-01
 -9.097  0.107E-01
 -9.087  0.114E-01
 -9.077  0.190E-01
 -9.067  0.264E-01
 -9.057  0.457E-01
 -9.047  0.415E-01
 -9.037  0.157E-01
 -9.027  0.918E-02
 -9.017  0.153E-01
 -9.007  0.280E-01
 -8.997  0.591E-01
 -8.987  0.827E-01
 -8.977  0.621E-01
 -8.967  0.337E-01
 -8.957  0.309E-01
 -8.947  0.227E-01
 -8.937  0.139E-01
 -8.927  0.234E-01
 -8.917  0.325E-01
 -8.907  0.333E-01
 -8.897  0.376E-01
 -8.887  0.339E-01
 -8.877  0.156E-01
 -8.867  0.649E-02
 -8.857  0.127E-01
 -8.847  0.151E-01
 -8.837  0.771E-02
 -8.827  0.144E-01
 -8.817  0.416E-01
 -8.807  0.471E-01
 -8.797  0.299E-01
 -8.787  0.255E-01
 -8.777  0.270E-01
 -8.767  0.186E-01
 -8.757  0.159E-01
 -8.747  0.322E-01
 -8.737  0.411E-01
 -8.727  0.485E-01
 -8.717  0.614E-01
 -8.707  0.706E-01
 -8.697  0.168E+00
 -8.687  0.382E+00
 -8.677  0.483E+00
 -8.667  0.389E+00
 -8.657  0.270E+00
 -8.647  0.217E+00
 -8.637  0.206E+00
 -8.627  0.194E+00
 -8.617  0.141E+00
 -8.607  0.103E+00
 -8.597  0.881E-01
 -8.587  0.691E-01
 -8.577  0.654E-01
 -8.567  0.619E-01
 -8.557  0.421E-01
 -8.547  0.332E-01
 -8.537  0.360E-01
 -8.527  0.264E-01
 -8.517  0.968E-02
 -8.507  0.823E-02
 -8.497  0.279E-01
 -8.487  0.529E-01
 -8.477  0.405E-01
 -8.467  0.283E-01
 -8.457  0.612E-01
 -8.447  0.114E+00
 -8.437  0.145E+00
 -8.427  0.251E+00
 -8.417  0.435E+00
 -8.407  0.540E+00
 -8.397  0.582E+00
 -8.387  0.694E+00
 -8.377  0.692E+00
 -8.367  0.497E+00
 -8.357  0.381E+00
 -8.347  0.277E+00
 -8.337  0.204E+00
 -8.327  0.212E+00
 -8.317  0.230E+00
 -8.307  0.221E+00
 -8.297  0.164E+00
 -8.287  0.102E+00
 -8.277  0.955E-01
 -8.267  0.101E+00
 -8.257  0.812E-01
 -8.247  0.785E-01
 -8.237  0.731E-01
 -8.227  0.529E-01
 -8.217  0.581E-01
 -8.207  0.800E-01
 -8.197  0.749E-01
 -8.187  0.626E-01
 -8.177  0.362E-01
 -8.167  0.127E-01
 -8.157  0.186E-01
 -8.147  0.427E-01
 -8.137  0.420E-01
 -8.127  0.427E-01
 -8.117  0.914E-01
 -8.107  0.120E+00
 -8.097  0.114E+00
 -8.087  0.127E+00
 -8.077  0.110E+00
 -8.067  0.673E-01
 -8.057  0.671E-01
 -8.047  0.101E+00
 -8.037  0.110E+00
 -8.027  0.133E+00
 -8.017  0.159E+00
 -8.007  0.125E+00
 -7.997  0.109E+00
 -7.987  0.931E-01
 -7.977  0.474E-01
 -7.967  0.293E-01
 -7.957  0.622E-01
 -7.947  0.895E-01
 -7.937  0.118E+00
 -7.927  0.148E+00
 -7.917  0.116E+00
 -7.907  0.903E-01
 -7.897  0.119E+00
 -7.887  0.183E+00
 -7.877  0.207E+00
 -7.867  0.142E+00
 -7.857  0.886E-01
 -7.847  0.512E-01
 -7.837  0.356E-01
 -7.827  0.927E-01
 -7.817  0.131E+00
 -7.807  0.810E-01
 -7.797  0.431E-01
 -7.787  0.444E-01
 -7.777  0.933E-01
 -7.767  0.121E+00
 -7.757  0.793E-01
 -7.747  0.384E-01
 -7.737  0.373E-01
 -7.727  0.651E-01
 -7.717  0.641E-01
 -7.707  0.812E-01
 -7.697  0.117E+00
 -7.687  0.878E-01
 -7.677  0.506E-01
 -7.667  0.522E-01
 -7.657  0.456E-01
 -7.647  0.240E-01
 -7.637  0.504E-01
 -7.627  0.102E+00
 -7.617  0.825E-01
 -7.607  0.371E-01
 -7.597  0.379E-01
 -7.587  0.561E-01
 -7.577  0.678E-01
 -7.567  0.488E-01
 -7.557  0.381E-01
 -7.547  0.489E-01
 -7.537  0.437E-01
 -7.527  0.328E-01
 -7.517  0.252E-01
 -7.507  0.178E-01
 -7.497  0.218E-01
 -7.487  0.226E-01
 -7.477  0.228E-01
 -7.467  0.330E-01
 -7.457  0.272E-01
 -7.447  0.115E-01
 -7.437  0.554E-02
 -7.427  0.668E-02
 -7.417  0.779E-02
 -7.407  0.718E-02
 -7.397  0.761E-02
 -7.387  0.118E-01
 -7.377  0.135E-01
 -7.367  0.755E-02
 -7.357  0.482E-02
 -7.347  0.989E-02
 -7.337  0.194E-01
 -7.327  0.244E-01
 -7.317  0.216E-01
 -7.307  0.206E-01
 -7.297  0.219E-01
 -7.287  0.628E-01
 -7.277  0.169E+00
 -7.267  0.197E+00
 -7.257  0.123E+00
 -7.247  0.139E+00
 -7.237  0.208E+00
 -7.227  0.225E+00
 -7.217  0.164E+00
 -7.207  0.134E+00
 -7.197  0.163E+00
 -7.187  0.166E+00
 -7.177  0.223E+00
 -7.167  0.330E+00
 -7.157  0.370E+00
 -7.147  0.365E+00
 -7.137  0.291E+00
 -7.127  0.237E+00
 -7.117  0.237E+00
 -7.107  0.200E+00
 -7.097  0.168E+00
 -7.087  0.196E+00
 -7.077  0.209E+00
 -7.067  0.221E+00
 -7.057  0.216E+00
 -7.047  0.189E+00
 -7.037  0.193E+00
 -7.027  0.158E+00
 -7.017  0.113E+00
 -7.007  0.860E-01
 -6.997  0.835E-01
 -6.987  0.109E+00
 -6.977  0.110E+00
 -6.967  0.632E-01
 -6.957  0.338E-01
 -6.947  0.414E-01
 -6.937  0.651E-01
 -6.927  0.742E-01
 -6.917  0.824E-01
 -6.907  0.838E-01
 -6.897  0.491E-01
 -6.887  0.211E-01
 -6.877  0.259E-01
 -6.867  0.268E-01
 -6.857  0.134E-01
 -6.847  0.148E-01
 -6.837  0.436E-01
 -6.827  0.748E-01
 -6.817  0.643E-01
 -6.807  0.302E-01
 -6.797  0.299E-01
 -6.787  0.394E-01
 -6.777  0.348E-01
 -6.767  0.398E-01
 -6.757  0.362E-01
 -6.747  0.361E-01
 -6.737  0.535E-01
 -6.727  0.497E-01
 -6.717  0.348E-01
 -6.707  0.237E-01
 -6.697  0.163E-01
 -6.687  0.411E-01
 -6.677  0.822E-01
 -6.667  0.727E-01
 -6.657  0.351E-01
 -6.647  0.215E-01
 -6.637  0.286E-01
 -6.627  0.492E-01
 -6.617  0.655E-01
 -6.607  0.566E-01
 -6.597  0.418E-01
 -6.587  0.521E-01
 -6.577  0.832E-01
 -6.567  0.741E-01
 -6.557  0.317E-01
 -6.547  0.220E-01
 -6.537  0.488E-01
 -6.527  0.526E-01
 -6.517  0.291E-01
 -6.507  0.373E-01
 -6.497  0.544E-01
 -6.487  0.434E-01
 -6.477  0.312E-01
 -6.467  0.195E-01
 -6.457  0.632E-02
 -6.447  0.132E-02
 -6.437  0.148E-02
 -6.427  0.731E-02
 -6.417  0.257E-01
 -6.407  0.426E-01
 -6.397  0.456E-01
 -6.387  0.489E-01
 -6.377  0.364E-01
 -6.367  0.117E-01
 -6.357  0.189E-02
 -6.347  0.590E-02
 -6.337  0.249E-01
 -6.327  0.455E-01
 -6.317  0.529E-01
 -6.307  0.492E-01
 -6.297  0.301E-01
 -6.287  0.940E-02
 -6.277  0.120E-02
 -6.267  0.548E-04
 -6.257  0.195E-05
 -6.247  0.716E-04
 -6.237  0.161E-02
 -6.227  0.123E-01
 -6.217  0.323E-01
 -6.207  0.333E-01
 -6.197  0.264E-01
 -6.187  0.217E-01
 -6.177  0.818E-02
 -6.167  0.150E-02
 -6.157  0.546E-02
 -6.147  0.238E-01
 -6.137  0.358E-01
 -6.127  0.206E-01
 -6.117  0.189E-01
 -6.107  0.349E-01
 -6.097  0.282E-01
 -6.087  0.129E-01
 -6.077  0.175E-01
 -6.067  0.200E-01
 -6.057  0.819E-02
 -6.047  0.114E-02
 -6.037  0.575E-04
 -6.027  0.160E-04
 -6.017  0.594E-04
 -6.007  0.148E-03
 -5.997  0.183E-03
 -5.987  0.154E-03
 -5.977  0.353E-03
 -5.967  0.218E-02
 -5.957  0.967E-02
 -5.947  0.169E-01
 -5.937  0.115E-01
 -5.927  0.944E-02
 -5.917  0.149E-01
 -5.907  0.106E-01
 -5.897  0.320E-02
 -5.887  0.132E-02
 -5.877  0.282E-02
 -5.867  0.490E-02
 -5.857  0.586E-02
 -5.847  0.831E-02
 -5.837  0.771E-02
 -5.827  0.741E-02
 -5.817  0.205E-01
 -5.807  0.535E-01
 -5.797  0.918E-01
 -5.787  0.110E+00
 -5.777  0.129E+00
 -5.767  0.139E+00
 -5.757  0.201E+00
 -5.747  0.358E+00
 -5.737  0.472E+00
 -5.727  0.430E+00
 -5.717  0.327E+00
 -5.707  0.302E+00
 -5.697  0.197E+00
 -5.687  0.108E+00
 -5.677  0.152E+00
 -5.667  0.205E+00
 -5.657  0.223E+00
 -5.647  0.196E+00
 -5.637  0.138E+00
 -5.627  0.751E-01
 -5.617  0.505E-01
 -5.607  0.746E-01
 -5.597  0.110E+00
 -5.587  0.139E+00
 -5.577  0.830E-01
 -5.567  0.186E-01
 -5.557  0.103E-01
 -5.547  0.665E-01
 -5.537  0.182E+00
 -5.527  0.196E+00
 -5.517  0.115E+00
 -5.507  0.962E-01
 -5.497  0.714E-01
 -5.487  0.220E-01
 -5.477  0.691E-02
 -5.467  0.254E-01
 -5.457  0.583E-01
 -5.447  0.595E-01
 -5.437  0.360E-01
 -5.427  0.344E-01
 -5.417  0.694E-01
 -5.407  0.641E-01
 -5.397  0.300E-01
 -5.387  0.477E-01
 -5.377  0.874E-01
 -5.367  0.939E-01
 -5.357  0.802E-01
 -5.347  0.575E-01
 -5.337  0.301E-01
 -5.327  0.347E-01
 -5.317  0.661E-01
 -5.307  0.583E-01
 -5.297  0.547E-01
 -5.287  0.872E-01
 -5.277  0.104E+00
 -5.267  0.814E-01
 -5.257  0.443E-01
 -5.247  0.233E-01
 -5.237  0.148E-01
 -5.227  0.134E-01
 -5.217  0.472E-01
 -5.207  0.976E-01
 -5.197  0.933E-01
 -5.187  0.577E-01
 -5.177  0.753E-01
 -5.167  0.110E+00
 -5.157  0.102E+00
 -5.147  0.877E-01
 -5.137  0.832E-01
 -5.127  0.480E-01
 -5.117  0.136E-01
 -5.107  0.152E-01
 -5.097  0.440E-01
 -5.087  0.500E-01
 -5.077  0.287E-01
 -5.067  0.491E-01
 -5.057  0.902E-01
 -5.047  0.102E+00
 -5.037  0.113E+00
 -5.027  0.128E+00
 -5.017  0.855E-01
 -5.007  0.510E-01
 -4.997  0.834E-01
 -4.987  0.958E-01
 -4.977  0.981E-01
 -4.967  0.146E+00
 -4.957  0.110E+00
 -4.947  0.332E-01
 -4.937  0.272E-01
 -4.927  0.806E-01
 -4.917  0.149E+00
 -4.907  0.200E+00
 -4.897  0.218E+00
 -4.887  0.202E+00
 -4.877  0.195E+00
 -4.867  0.250E+00
 -4.857  0.262E+00
 -4.847  0.287E+00
 -4.837  0.340E+00
 -4.827  0.254E+00
 -4.817  0.128E+00
 -4.807  0.802E-01
 -4.797  0.954E-01
 -4.787  0.123E+00
 -4.777  0.128E+00
 -4.767  0.130E+00
 -4.757  0.163E+00
 -4.747  0.201E+00
 -4.737  0.164E+00
 -4.727  0.108E+00
 -4.717  0.111E+00
 -4.707  0.155E+00
 -4.697  0.234E+00
 -4.687  0.229E+00
 -4.677  0.111E+00
 -4.667  0.749E-01
 -4.657  0.140E+00
 -4.647  0.183E+00
 -4.637  0.180E+00
 -4.627  0.134E+00
 -4.617  0.853E-01
 -4.607  0.465E-01
 -4.597  0.438E-01
 -4.587  0.118E+00
 -4.577  0.204E+00
 -4.567  0.175E+00
 -4.557  0.955E-01
 -4.547  0.664E-01
 -4.537  0.711E-01
 -4.527  0.828E-01
 -4.517  0.840E-01
 -4.507  0.637E-01
 -4.497  0.560E-01
 -4.487  0.837E-01
 -4.477  0.103E+00
 -4.467  0.115E+00
 -4.457  0.131E+00
 -4.447  0.926E-01
 -4.437  0.794E-01
 -4.427  0.124E+00
 -4.417  0.137E+00
 -4.407  0.103E+00
 -4.397  0.717E-01
 -4.387  0.540E-01
 -4.377  0.469E-01
 -4.367  0.431E-01
 -4.357  0.101E+00
 -4.347  0.178E+00
 -4.337  0.240E+00
 -4.327  0.286E+00
 -4.317  0.209E+00
 -4.307  0.134E+00
 -4.297  0.122E+00
 -4.287  0.949E-01
 -4.277  0.780E-01
 -4.267  0.688E-01
 -4.257  0.523E-01
 -4.247  0.585E-01
 -4.237  0.915E-01
 -4.227  0.715E-01
 -4.217  0.559E-01
 -4.207  0.998E-01
 -4.197  0.143E+00
 -4.187  0.159E+00
 -4.177  0.136E+00
 -4.167  0.943E-01
 -4.157  0.983E-01
 -4.147  0.108E+00
 -4.137  0.866E-01
 -4.127  0.473E-01
 -4.117  0.329E-01
 -4.107  0.624E-01
 -4.097  0.780E-01
 -4.087  0.874E-01
 -4.077  0.873E-01
 -4.067  0.691E-01
 -4.057  0.991E-01
 -4.047  0.177E+00
 -4.037  0.204E+00
 -4.027  0.139E+00
 -4.017  0.667E-01
 -4.007  0.641E-01
 -3.997  0.110E+00
 -3.987  0.125E+00
 -3.977  0.100E+00
 -3.967  0.874E-01
 -3.957  0.983E-01
 -3.947  0.109E+00
 -3.937  0.103E+00
 -3.927  0.114E+00
 -3.917  0.179E+00
 -3.907  0.182E+00
 -3.897  0.823E-01
 -3.887  0.296E-01
 -3.877  0.417E-01
 -3.867  0.471E-01
 -3.857  0.432E-01
 -3.847  0.660E-01
 -3.837  0.982E-01
 -3.827  0.144E+00
 -3.817  0.151E+00
 -3.807  0.140E+00
 -3.797  0.157E+00
 -3.787  0.117E+00
 -3.777  0.518E-01
 -3.767  0.349E-01
 -3.757  0.446E-01
 -3.747  0.808E-01
 -3.737  0.808E-01
 -3.727  0.548E-01
 -3.717  0.784E-01
 -3.707  0.141E+00
 -3.697  0.221E+00
 -3.687  0.211E+00
 -3.677  0.106E+00
 -3.667  0.310E-01
 -3.657  0.576E-02
 -3.647  0.109E-01
 -3.637  0.527E-01
 -3.627  0.106E+00
 -3.617  0.117E+00
 -3.607  0.129E+00
 -3.597  0.126E+00
 -3.587  0.898E-01
 -3.577  0.695E-01
 -3.567  0.106E+00
 -3.557  0.178E+00
 -3.547  0.172E+00
 -3.537  0.106E+00
 -3.527  0.817E-01
 -3.517  0.110E+00
 -3.507  0.134E+00
 -3.497  0.160E+00
 -3.487  0.207E+00
 -3.477  0.198E+00
 -3.467  0.104E+00
 -3.457  0.234E-01
 -3.447  0.196E-02
 -3.437  0.581E-04
 -3.427  0.598E-06
 -3.417  0.212E-08
 -3.407  0.258E-11
 -3.397  0.000E+00
 -3.387  0.000E+00
 -3.377  0.000E+00
 -3.367  0.000E+00
 -3.357  0.000E+00
 -3.347  0.000E+00
 -3.337  0.000E+00
 -3.327  0.000E+00
 -3.317  0.000E+00
 -3.307  0.000E+00
 -3.297  0.000E+00
 -3.287  0.000E+00
 -3.277  0.000E+00
 -3.267  0.000E+00
 -3.257  0.000E+00
 -3.247  0.000E+00
 -3.237  0.000E+00
 -3.227  0.000E+00
 -3.217  0.000E+00
 -3.207  0.000E+00
 -3.197  0.000E+00
 -3.187  0.000E+00
 -3.177  0.000E+00
 -3.167  0.000E+00
 -3.157  0.000E+00
 -3.147  0.000E+00
 -3.137  0.000E+00
 -3.127  0.000E+00
 -3.117  0.000E+00
 -3.107  0.000E+00
 -3.097  0.000E+00
 -3.087  0.000E+00
 -3.077  0.000E+00
 -3.067  0.000E+00
 -3.057  0.000E+00
 -3.047  0.000E+00
 -3.037  0.000E+00
 -3.027  0.000E+00
 -3.017  0.000E+00
 -3.007  0.000E+00
 -2.997  0.000E+00
 -2.987  0.000E+00
 -2.977  0.000E+00
 -2.967  0.000E+00
 -2.957  0.000E+00
 -2.947  0.000E+00
 -2.937  0.000E+00
 -2.927  0.000E+00
 -2.917  0.000E+00
 -2.907  0.000E+00
 -2.897  0.000E+00
 -2.887  0.000E+00
 -2.877  0.000E+00
 -2.867  0.000E+00
 -2.857  0.000E+00
 -2.847  0.000E+00
 -2.837  0.000E+00
 -2.827  0.000E+00
 -2.817  0.000E+00
 -2.807  0.000E+00
 -2.797  0.000E+00
 -2.787  0.000E+00
 -2.777  0.000E+00
 -2.767  0.000E+00
 -2.757  0.000E+00
 -2.747  0.000E+00
 -2.737  0.000E+00
 -2.727  0.000E+00
 -2.717  0.000E+00
 -2.707  0.000E+00
 -2.697  0.000E+00
 -2.687  0.000E+00
 -2.677  0.000E+00
 -2.667  0.000E+00
 -2.657  0.000E+00
 -2.647  0.000E+00
 -2.637  0.000E+00
 -2.627  0.000E+00
 -2.617  0.000E+00
 -2.607  0.000E+00
 -2.597  0.000E+00
 -2.587  0.000E+00
 -2.577  0.000E+00
 -2.567  0.000E+00
 -2.557  0.000E+00
 -2.547  0.000E+00
 -2.537  0.000E+00
 -2.527  0.000E+00
 -2.517  0.000E+00
 -2.507  0.000E+00
 -2.497  0.000E+00
 -2.487  0.000E+00
 -2.477  0.000E+00
 -2.467  0.000E+00
 -2.457  0.000E+00
 -2.447  0.000E+00
 -2.437  0.000E+00
 -2.427  0.000E+00
 -2.417  0.000E+00
 -2.407  0.000E+00
 -2.397  0.000E+00
 -2.387  0.000E+00
 -2.377  0.000E+00
 -2.367  0.000E+00
 -2.357  0.000E+00
 -2.347  0.000E+00
 -2.337  0.000E+00
 -2.327  0.000E+00
 -2.317  0.000E+00
 -2.307  0.000E+00
 -2.297  0.000E+00
 -2.287  0.000E+00
 -2.277  0.000E+00
 -2.267  0.000E+00
 -2.257  0.000E+00
 -2.247  0.000E+00
 -2.237  0.000E+00
 -2.227  0.298E-13
 -2.217  0.408E-10
 -2.207  0.190E-07
 -2.197  0.299E-05
 -2.187  0.160E-03
 -2.177  0.293E-02
 -2.167  0.188E-01
 -2.157  0.482E-01
 -2.147  0.746E-01
 -2.137  0.903E-01
 -2.127  0.921E-01
 -2.117  0.844E-01
 -2.107  0.393E-01
 -2.097  0.264E-01
 -2.087  0.850E-01
 -2.077  0.121E+00
 -2.067  0.594E-01
 -2.057  0.198E-01
 -2.047  0.611E-01
 -2.037  0.150E+00
 -2.027  0.163E+00
 -2.017  0.153E+00
 -2.007  0.175E+00
 -1.997  0.128E+00
 -1.987  0.775E-01
 -1.977  0.710E-01
 -1.967  0.930E-01
 -1.957  0.955E-01
 -1.947  0.142E+00
 -1.937  0.193E+00
 -1.927  0.174E+00
 -1.917  0.151E+00
 -1.907  0.155E+00
 -1.897  0.154E+00
 -1.887  0.149E+00
 -1.877  0.121E+00
 -1.867  0.106E+00