# E (eV) pdos(E) 
-17.637  0.282E-06
-17.627  0.135E-04
-17.617  0.223E-03
-17.607  0.130E-02
-17.597  0.301E-02
-17.587  0.350E-02
-17.577  0.259E-02
-17.567  0.290E-02
-17.557  0.508E-02
-17.547  0.484E-02
-17.537  0.288E-02
-17.527  0.278E-02
-17.517  0.426E-02
-17.507  0.283E-02
-17.497  0.104E-02
-17.487  0.241E-02
-17.477  0.553E-02
-17.467  0.640E-02
-17.457  0.417E-02
-17.447  0.236E-02
-17.437  0.295E-02
-17.427  0.315E-02
-17.417  0.238E-02
-17.407  0.311E-02
-17.397  0.402E-02
-17.387  0.209E-02
-17.377  0.123E-02
-17.367  0.361E-02
-17.357  0.625E-02
-17.347  0.574E-02
-17.337  0.373E-02
-17.327  0.405E-02
-17.317  0.352E-02
-17.307  0.159E-02
-17.297  0.297E-02
-17.287  0.602E-02
-17.277  0.432E-02
-17.267  0.108E-02
-17.257  0.505E-03
-17.247  0.230E-02
-17.237  0.442E-02
-17.227  0.401E-02
-17.217  0.513E-02
-17.207  0.709E-02
-17.197  0.586E-02
-17.187  0.432E-02
-17.177  0.477E-02
-17.167  0.300E-02
-17.157  0.187E-02
-17.147  0.441E-02
-17.137  0.603E-02
-17.127  0.434E-02
-17.117  0.396E-02
-17.107  0.619E-02
-17.097  0.572E-02
-17.087  0.257E-02
-17.077  0.521E-03
-17.067  0.153E-03
-17.057  0.154E-02
-17.047  0.746E-02
-17.037  0.137E-01
-17.027  0.115E-01
-17.017  0.687E-02
-17.007  0.637E-02
-16.997  0.454E-02
-16.987  0.307E-02
-16.977  0.579E-02
-16.967  0.564E-02
-16.957  0.297E-02
-16.947  0.587E-02
-16.937  0.115E-01
-16.927  0.994E-02
-16.917  0.441E-02
-16.907  0.499E-02
-16.897  0.788E-02
-16.887  0.671E-02
-16.877  0.494E-02
-16.867  0.271E-02
-16.857  0.394E-02
-16.847  0.103E-01
-16.837  0.144E-01
-16.827  0.168E-01
-16.817  0.194E-01
-16.807  0.121E-01
-16.797  0.782E-02
-16.787  0.973E-02
-16.777  0.582E-02
-16.767  0.364E-02
-16.757  0.106E-01
-16.747  0.162E-01
-16.737  0.136E-01
-16.727  0.117E-01
-16.717  0.107E-01
-16.707  0.137E-01
-16.697  0.112E-01
-16.687  0.883E-02
-16.677  0.132E-01
-16.667  0.117E-01
-16.657  0.135E-01
-16.647  0.227E-01
-16.637  0.243E-01
-16.627  0.197E-01
-16.617  0.162E-01
-16.607  0.184E-01
-16.597  0.317E-01
-16.587  0.277E-01
-16.577  0.160E-01
-16.567  0.187E-01
-16.557  0.166E-01
-16.547  0.167E-01
-16.537  0.259E-01
-16.527  0.320E-01
-16.517  0.287E-01
-16.507  0.182E-01
-16.497  0.148E-01
-16.487  0.255E-01
-16.477  0.246E-01
-16.467  0.249E-01
-16.457  0.393E-01
-16.447  0.518E-01
-16.437  0.567E-01
-16.427  0.443E-01
-16.417  0.326E-01
-16.407  0.294E-01
-16.397  0.397E-01
-16.387  0.646E-01
-16.377  0.539E-01
-16.367  0.442E-01
-16.357  0.540E-01
-16.347  0.497E-01
-16.337  0.517E-01
-16.327  0.640E-01
-16.317  0.574E-01
-16.307  0.440E-01
-16.297  0.546E-01
-16.287  0.605E-01
-16.277  0.829E-01
-16.267  0.126E+00
-16.257  0.129E+00
-16.247  0.998E-01
-16.237  0.874E-01
-16.227  0.119E+00
-16.217  0.151E+00
-16.207  0.128E+00
-16.197  0.121E+00
-16.187  0.152E+00
-16.177  0.180E+00
-16.167  0.194E+00
-16.157  0.205E+00
-16.147  0.205E+00
-16.137  0.234E+00
-16.127  0.314E+00
-16.117  0.506E+00
-16.107  0.552E+00
-16.097  0.278E+00
-16.087  0.961E-01
-16.077  0.133E+00
-16.067  0.197E+00
-16.057  0.202E+00
-16.047  0.143E+00
-16.037  0.128E+00
-16.027  0.199E+00
-16.017  0.265E+00
-16.007  0.206E+00
-15.997  0.989E-01
-15.987  0.109E+00
-15.977  0.133E+00
-15.967  0.115E+00
-15.957  0.160E+00
-15.947  0.301E+00
-15.937  0.543E+00
-15.927  0.854E+00
-15.917  0.107E+01
-15.907  0.116E+01
-15.897  0.119E+01
-15.887  0.119E+01
-15.877  0.115E+01
-15.867  0.110E+01
-15.857  0.103E+01
-15.847  0.954E+00
-15.837  0.860E+00
-15.827  0.768E+00
-15.817  0.670E+00
-15.807  0.573E+00
-15.797  0.476E+00
-15.787  0.380E+00
-15.777  0.283E+00
-15.767  0.187E+00
-15.757  0.968E-01
-15.747  0.325E-01
-15.737  0.575E-02
-15.727  0.458E-03
-15.717  0.148E-04
-15.707  0.183E-06
-15.697  0.832E-09
-15.687  0.137E-11
-15.677  0.571E-15
-15.667  0.000E+00
-15.657  0.000E+00
-15.647  0.000E+00
-15.637  0.000E+00
-15.627  0.000E+00
-15.617  0.000E+00
-15.607  0.000E+00
-15.597  0.000E+00
-15.587  0.000E+00
-15.577  0.000E+00
-15.567  0.000E+00
-15.557  0.000E+00
-15.547  0.000E+00
-15.537  0.000E+00
-15.527  0.000E+00
-15.517  0.000E+00
-15.507  0.000E+00
-15.497  0.000E+00
-15.487  0.000E+00
-15.477  0.000E+00
-15.467  0.000E+00
-15.457  0.000E+00
-15.447  0.000E+00
-15.437  0.000E+00
-15.427  0.000E+00
-15.417  0.000E+00
-15.407  0.000E+00
-15.397  0.000E+00
-15.387  0.000E+00
-15.377  0.000E+00
-15.367  0.000E+00
-15.357  0.000E+00
-15.347  0.000E+00
-15.337  0.000E+00
-15.327  0.000E+00
-15.317  0.000E+00
-15.307  0.000E+00
-15.297  0.000E+00
-15.287  0.000E+00
-15.277  0.000E+00
-15.267  0.000E+00
-15.257  0.000E+00
-15.247  0.000E+00
-15.237  0.000E+00
-15.227  0.000E+00
-15.217  0.000E+00
-15.207  0.000E+00
-15.197  0.000E+00
-15.187  0.000E+00
-15.177  0.000E+00
-15.167  0.000E+00
-15.157  0.000E+00
-15.147  0.000E+00
-15.137  0.000E+00
-15.127  0.000E+00
-15.117  0.000E+00
-15.107  0.000E+00
-15.097  0.000E+00
-15.087  0.000E+00
-15.077  0.000E+00
-15.067  0.000E+00
-15.057  0.000E+00
-15.047  0.000E+00
-15.037  0.000E+00
-15.027  0.000E+00
-15.017  0.000E+00
-15.007  0.000E+00
-14.997  0.000E+00
-14.987  0.000E+00
-14.977  0.000E+00
-14.967  0.000E+00
-14.957  0.000E+00
-14.947  0.000E+00
-14.937  0.000E+00
-14.927  0.000E+00
-14.917  0.000E+00
-14.907  0.000E+00
-14.897  0.000E+00
-14.887  0.000E+00
-14.877  0.000E+00
-14.867  0.000E+00
-14.857  0.000E+00
-14.847  0.000E+00
-14.837  0.000E+00
-14.827  0.000E+00
-14.817  0.000E+00
-14.807  0.000E+00
-14.797  0.000E+00
-14.787  0.000E+00
-14.777  0.000E+00
-14.767  0.000E+00
-14.757  0.000E+00
-14.747  0.000E+00
-14.737  0.000E+00
-14.727  0.000E+00
-14.717  0.000E+00
-14.707  0.000E+00
-14.697  0.000E+00
-14.687  0.000E+00
-14.677  0.000E+00
-14.667  0.000E+00
-14.657  0.000E+00
-14.647  0.000E+00
-14.637  0.000E+00
-14.627  0.000E+00
-14.617  0.000E+00
-14.607  0.000E+00
-14.597  0.000E+00
-14.587  0.000E+00
-14.577  0.000E+00
-14.567  0.000E+00
-14.557  0.000E+00
-14.547  0.000E+00
-14.537  0.000E+00
-14.527  0.000E+00
-14.517  0.000E+00
-14.507  0.000E+00
-14.497  0.000E+00
-14.487  0.000E+00
-14.477  0.000E+00
-14.467  0.000E+00
-14.457  0.000E+00
-14.447  0.000E+00
-14.437  0.000E+00
-14.427  0.000E+00
-14.417  0.000E+00
-14.407  0.000E+00
-14.397  0.000E+00
-14.387  0.000E+00
-14.377  0.000E+00
-14.367  0.000E+00
-14.357  0.000E+00
-14.347  0.000E+00
-14.337  0.000E+00
-14.327  0.000E+00
-14.317  0.000E+00
-14.307  0.000E+00
-14.297  0.000E+00
-14.287  0.000E+00
-14.277  0.000E+00
-14.267  0.000E+00
-14.257  0.000E+00
-14.247  0.000E+00
-14.237  0.000E+00
-14.227  0.000E+00
-14.217  0.000E+00
-14.207  0.000E+00
-14.197  0.000E+00
-14.187  0.000E+00
-14.177  0.000E+00
-14.167  0.000E+00
-14.157  0.000E+00
-14.147  0.000E+00
-14.137  0.000E+00
-14.127  0.000E+00
-14.117  0.000E+00
-14.107  0.000E+00
-14.097  0.000E+00
-14.087  0.000E+00
-14.077  0.000E+00
-14.067  0.000E+00
-14.057  0.000E+00
-14.047  0.000E+00
-14.037  0.000E+00
-14.027  0.000E+00
-14.017  0.000E+00
-14.007  0.000E+00
-13.997  0.000E+00
-13.987  0.000E+00
-13.977  0.000E+00
-13.967  0.000E+00
-13.957  0.000E+00
-13.947  0.000E+00
-13.937  0.000E+00
-13.927  0.000E+00
-13.917  0.000E+00
-13.907  0.000E+00
-13.897  0.000E+00
-13.887  0.000E+00
-13.877  0.000E+00
-13.867  0.000E+00
-13.857  0.000E+00
-13.847  0.000E+00
-13.837  0.000E+00
-13.827  0.000E+00
-13.817  0.000E+00
-13.807  0.000E+00
-13.797  0.000E+00
-13.787  0.000E+00
-13.777  0.000E+00
-13.767  0.000E+00
-13.757  0.000E+00
-13.747  0.000E+00
-13.737  0.000E+00
-13.727  0.000E+00
-13.717  0.000E+00
-13.707  0.000E+00
-13.697  0.000E+00
-13.687  0.000E+00
-13.677  0.000E+00
-13.667  0.000E+00
-13.657  0.000E+00
-13.647  0.000E+00
-13.637  0.000E+00
-13.627  0.000E+00
-13.617  0.000E+00
-13.607  0.000E+00
-13.597  0.000E+00
-13.587  0.000E+00
-13.577  0.000E+00
-13.567  0.000E+00
-13.557  0.000E+00
-13.547  0.000E+00
-13.537  0.000E+00
-13.527  0.000E+00
-13.517  0.000E+00
-13.507  0.000E+00
-13.497  0.000E+00
-13.487  0.000E+00
-13.477  0.000E+00
-13.467  0.000E+00
-13.457  0.000E+00
-13.447  0.000E+00
-13.437  0.000E+00
-13.427  0.000E+00
-13.417  0.000E+00
-13.407  0.000E+00
-13.397  0.000E+00
-13.387  0.000E+00
-13.377  0.000E+00
-13.367  0.000E+00
-13.357  0.000E+00
-13.347  0.000E+00
-13.337  0.000E+00
-13.327  0.000E+00
-13.317  0.000E+00
-13.307  0.000E+00
-13.297  0.000E+00
-13.287  0.000E+00
-13.277  0.000E+00
-13.267  0.000E+00
-13.257  0.000E+00
-13.247  0.000E+00
-13.237  0.000E+00
-13.227  0.000E+00
-13.217  0.000E+00
-13.207  0.000E+00
-13.197  0.000E+00
-13.187  0.000E+00
-13.177  0.000E+00
-13.167  0.000E+00
-13.157  0.000E+00
-13.147  0.000E+00
-13.137  0.000E+00
-13.127  0.000E+00
-13.117  0.000E+00
-13.107  0.000E+00
-13.097  0.000E+00
-13.087  0.000E+00
-13.077  0.000E+00
-13.067  0.000E+00
-13.057  0.000E+00
-13.047  0.000E+00
-13.037  0.000E+00
-13.027  0.000E+00
-13.017  0.000E+00
-13.007  0.000E+00
-12.997  0.000E+00
-12.987  0.000E+00
-12.977  0.000E+00
-12.967  0.000E+00
-12.957  0.000E+00
-12.947  0.000E+00
-12.937  0.000E+00
-12.927  0.000E+00
-12.917  0.000E+00
-12.907  0.000E+00
-12.897  0.000E+00
-12.887  0.000E+00
-12.877  0.000E+00
-12.867  0.000E+00
-12.857  0.000E+00
-12.847  0.000E+00
-12.837  0.000E+00
-12.827  0.000E+00
-12.817  0.000E+00
-12.807  0.000E+00
-12.797  0.000E+00
-12.787  0.000E+00
-12.777  0.000E+00
-12.767  0.000E+00
-12.757  0.000E+00
-12.747  0.000E+00
-12.737  0.000E+00
-12.727  0.000E+00
-12.717  0.000E+00
-12.707  0.000E+00
-12.697  0.000E+00
-12.687  0.000E+00
-12.677  0.000E+00
-12.667  0.000E+00
-12.657  0.000E+00
-12.647  0.000E+00
-12.637  0.000E+00
-12.627  0.000E+00
-12.617  0.000E+00
-12.607  0.000E+00
-12.597  0.000E+00
-12.587  0.000E+00
-12.577  0.000E+00
-12.567  0.000E+00
-12.557  0.000E+00
-12.547  0.000E+00
-12.537  0.000E+00
-12.527  0.000E+00
-12.517  0.000E+00
-12.507  0.000E+00
-12.497  0.000E+00
-12.487  0.000E+00
-12.477  0.000E+00
-12.467  0.000E+00
-12.457  0.000E+00
-12.447  0.000E+00
-12.437  0.000E+00
-12.427  0.000E+00
-12.417  0.000E+00
-12.407  0.000E+00
-12.397  0.000E+00
-12.387  0.000E+00
-12.377  0.000E+00
-12.367  0.000E+00
-12.357  0.000E+00
-12.347  0.000E+00
-12.337  0.000E+00
-12.327  0.000E+00
-12.317  0.000E+00
-12.307  0.000E+00
-12.297  0.000E+00
-12.287  0.000E+00
-12.277  0.000E+00
-12.267  0.000E+00
-12.257  0.000E+00
-12.247  0.000E+00
-12.237  0.000E+00
-12.227  0.000E+00
-12.217  0.000E+00
-12.207  0.000E+00
-12.197  0.000E+00
-12.187  0.000E+00
-12.177  0.000E+00
-12.167  0.000E+00
-12.157  0.000E+00
-12.147  0.000E+00
-12.137  0.000E+00
-12.127  0.000E+00
-12.117  0.000E+00
-12.107  0.000E+00
-12.097  0.000E+00
-12.087  0.000E+00
-12.077  0.000E+00
-12.067  0.000E+00
-12.057  0.000E+00
-12.047  0.000E+00
-12.037  0.000E+00
-12.027  0.000E+00
-12.017  0.000E+00
-12.007  0.000E+00
-11.997  0.000E+00
-11.987  0.000E+00
-11.977  0.000E+00
-11.967  0.000E+00
-11.957  0.000E+00
-11.947  0.000E+00
-11.937  0.000E+00
-11.927  0.000E+00
-11.917  0.000E+00
-11.907  0.000E+00
-11.897  0.000E+00
-11.887  0.000E+00
-11.877  0.000E+00
-11.867  0.000E+00
-11.857  0.000E+00
-11.847  0.000E+00
-11.837  0.000E+00
-11.827  0.000E+00
-11.817  0.000E+00
-11.807  0.000E+00
-11.797  0.000E+00
-11.787  0.000E+00
-11.777  0.000E+00
-11.767  0.000E+00
-11.757  0.000E+00
-11.747  0.000E+00
-11.737  0.000E+00
-11.727  0.000E+00
-11.717  0.000E+00
-11.707  0.000E+00
-11.697  0.000E+00
-11.687  0.000E+00
-11.677  0.000E+00
-11.667  0.000E+00
-11.657  0.000E+00
-11.647  0.000E+00
-11.637  0.000E+00
-11.627  0.000E+00
-11.617  0.000E+00
-11.607  0.000E+00
-11.597  0.000E+00
-11.587  0.000E+00
-11.577  0.000E+00
-11.567  0.000E+00
-11.557  0.000E+00
-11.547  0.000E+00
-11.537  0.000E+00
-11.527  0.000E+00
-11.517  0.000E+00
-11.507  0.000E+00
-11.497  0.000E+00
-11.487  0.000E+00
-11.477  0.000E+00
-11.467  0.000E+00
-11.457  0.000E+00
-11.447  0.000E+00
-11.437  0.000E+00
-11.427  0.000E+00
-11.417  0.000E+00
-11.407  0.000E+00
-11.397  0.000E+00
-11.387  0.000E+00
-11.377  0.000E+00
-11.367  0.000E+00
-11.357  0.000E+00
-11.347  0.000E+00
-11.337  0.000E+00
-11.327  0.000E+00
-11.317  0.000E+00
-11.307  0.000E+00
-11.297  0.000E+00
-11.287  0.000E+00
-11.277  0.000E+00
-11.267  0.000E+00
-11.257  0.000E+00
-11.247  0.000E+00
-11.237  0.000E+00
-11.227  0.000E+00
-11.217  0.000E+00
-11.207  0.000E+00
-11.197  0.000E+00
-11.187  0.000E+00
-11.177  0.000E+00
-11.167  0.000E+00
-11.157  0.000E+00
-11.147  0.000E+00
-11.137  0.000E+00
-11.127  0.000E+00
-11.117  0.000E+00
-11.107  0.000E+00
-11.097  0.000E+00
-11.087  0.000E+00
-11.077  0.000E+00
-11.067  0.000E+00
-11.057  0.000E+00
-11.047  0.000E+00
-11.037  0.000E+00
-11.027  0.000E+00
-11.017  0.000E+00
-11.007  0.000E+00
-10.997  0.000E+00
-10.987  0.000E+00
-10.977  0.000E+00
-10.967  0.000E+00
-10.957  0.000E+00
-10.947  0.000E+00
-10.937  0.000E+00
-10.927  0.000E+00
-10.917  0.000E+00
-10.907  0.000E+00
-10.897  0.000E+00
-10.887  0.000E+00
-10.877  0.000E+00
-10.867  0.000E+00
-10.857  0.000E+00
-10.847  0.000E+00
-10.837  0.000E+00
-10.827  0.000E+00
-10.817  0.000E+00
-10.807  0.000E+00
-10.797  0.000E+00
-10.787  0.000E+00
-10.777  0.000E+00
-10.767  0.000E+00
-10.757  0.000E+00
-10.747  0.000E+00
-10.737  0.000E+00
-10.727  0.000E+00
-10.717  0.000E+00
-10.707  0.000E+00
-10.697  0.000E+00
-10.687  0.000E+00
-10.677  0.000E+00
-10.667  0.000E+00
-10.657  0.000E+00
-10.647  0.000E+00
-10.637  0.000E+00
-10.627  0.000E+00
-10.617  0.000E+00
-10.607  0.000E+00
-10.597  0.000E+00
-10.587  0.000E+00
-10.577  0.000E+00
-10.567  0.000E+00
-10.557  0.000E+00
-10.547  0.000E+00
-10.537  0.000E+00
-10.527  0.000E+00
-10.517  0.000E+00
-10.507  0.000E+00
-10.497  0.000E+00
-10.487  0.000E+00
-10.477  0.000E+00
-10.467  0.000E+00
-10.457  0.000E+00
-10.447  0.000E+00
-10.437  0.000E+00
-10.427  0.000E+00
-10.417  0.000E+00
-10.407  0.000E+00
-10.397  0.000E+00
-10.387  0.000E+00
-10.377  0.000E+00
-10.367  0.000E+00
-10.357  0.000E+00
-10.347  0.000E+00
-10.337  0.000E+00
-10.327  0.000E+00
-10.317  0.000E+00
-10.307  0.000E+00
-10.297  0.000E+00
-10.287  0.000E+00
-10.277  0.000E+00
-10.267  0.000E+00
-10.257  0.000E+00
-10.247  0.000E+00
-10.237  0.000E+00
-10.227  0.000E+00
-10.217  0.000E+00
-10.207  0.000E+00
-10.197  0.000E+00
-10.187  0.000E+00
-10.177  0.000E+00
-10.167  0.000E+00
-10.157  0.000E+00
-10.147  0.000E+00
-10.137  0.000E+00
-10.127  0.000E+00
-10.117  0.000E+00
-10.107  0.000E+00
-10.097  0.000E+00
-10.087  0.000E+00
-10.077  0.000E+00
-10.067  0.000E+00
-10.057  0.000E+00
-10.047  0.000E+00
-10.037  0.000E+00
-10.027  0.000E+00
-10.017  0.000E+00
-10.007  0.000E+00
 -9.997  0.000E+00
 -9.987  0.000E+00
 -9.977  0.000E+00
 -9.967  0.000E+00
 -9.957  0.000E+00
 -9.947  0.000E+00
 -9.937  0.000E+00
 -9.927  0.000E+00
 -9.917  0.000E+00
 -9.907  0.000E+00
 -9.897  0.000E+00
 -9.887  0.000E+00
 -9.877  0.000E+00
 -9.867  0.000E+00
 -9.857  0.000E+00
 -9.847  0.000E+00
 -9.837  0.000E+00
 -9.827  0.000E+00
 -9.817  0.000E+00
 -9.807  0.000E+00
 -9.797  0.000E+00
 -9.787  0.000E+00
 -9.777  0.000E+00
 -9.767  0.000E+00
 -9.757  0.000E+00
 -9.747  0.000E+00
 -9.737  0.000E+00
 -9.727  0.000E+00
 -9.717  0.499E-11
 -9.707  0.414E-08
 -9.697  0.117E-05
 -9.687  0.112E-03
 -9.677  0.370E-02
 -9.667  0.426E-01
 -9.657  0.181E+00
 -9.647  0.317E+00
 -9.637  0.271E+00
 -9.627  0.149E+00
 -9.617  0.195E+00
 -9.607  0.331E+00
 -9.597  0.277E+00
 -9.587  0.106E+00
 -9.577  0.672E-01
 -9.567  0.245E+00
 -9.557  0.433E+00
 -9.547  0.411E+00
 -9.537  0.376E+00
 -9.527  0.271E+00
 -9.517  0.127E+00
 -9.507  0.158E+00
 -9.497  0.272E+00
 -9.487  0.353E+00
 -9.477  0.327E+00
 -9.467  0.249E+00
 -9.457  0.185E+00
 -9.447  0.110E+00
 -9.437  0.116E+00
 -9.427  0.167E+00
 -9.417  0.227E+00
 -9.407  0.203E+00
 -9.397  0.316E+00
 -9.387  0.450E+00
 -9.377  0.451E+00
 -9.367  0.484E+00
 -9.357  0.370E+00
 -9.347  0.223E+00
 -9.337  0.270E+00
 -9.327  0.345E+00
 -9.317  0.215E+00
 -9.307  0.680E-01
 -9.297  0.973E-01
 -9.287  0.295E+00
 -9.277  0.429E+00
 -9.267  0.427E+00
 -9.257  0.390E+00
 -9.247  0.245E+00
 -9.237  0.224E+00
 -9.227  0.198E+00
 -9.217  0.100E+00
 -9.207  0.110E+00
 -9.197  0.115E+00
 -9.187  0.155E+00
 -9.177  0.409E+00
 -9.167  0.641E+00
 -9.157  0.684E+00
 -9.147  0.539E+00
 -9.137  0.281E+00
 -9.127  0.370E+00
 -9.117  0.573E+00
 -9.107  0.397E+00
 -9.097  0.144E+00
 -9.087  0.176E+00
 -9.077  0.323E+00
 -9.067  0.367E+00
 -9.057  0.510E+00
 -9.047  0.448E+00
 -9.037  0.193E+00
 -9.027  0.208E+00
 -9.017  0.353E+00
 -9.007  0.449E+00
 -8.997  0.610E+00
 -8.987  0.718E+00
 -8.977  0.556E+00
 -8.967  0.404E+00
 -8.957  0.500E+00
 -8.947  0.389E+00
 -8.937  0.236E+00
 -8.927  0.387E+00
 -8.917  0.500E+00
 -8.907  0.455E+00
 -8.897  0.542E+00
 -8.887  0.540E+00
 -8.877  0.263E+00
 -8.867  0.113E+00
 -8.857  0.223E+00
 -8.847  0.266E+00
 -8.837  0.131E+00
 -8.827  0.216E+00
 -8.817  0.624E+00
 -8.807  0.720E+00
 -8.797  0.482E+00
 -8.787  0.403E+00
 -8.777  0.384E+00
 -8.767  0.251E+00
 -8.757  0.195E+00
 -8.747  0.400E+00
 -8.737  0.561E+00
 -8.727  0.642E+00
 -8.717  0.751E+00
 -8.707  0.102E+01
 -8.697  0.315E+01
 -8.687  0.729E+01
 -8.677  0.843E+01
 -8.667  0.597E+01
 -8.657  0.368E+01
 -8.647  0.288E+01
 -8.637  0.275E+01
 -8.627  0.258E+01
 -8.617  0.203E+01
 -8.607  0.158E+01
 -8.597  0.179E+01
 -8.587  0.181E+01
 -8.577  0.158E+01
 -8.567  0.146E+01
 -8.557  0.147E+01
 -8.547  0.162E+01
 -8.537  0.164E+01
 -8.527  0.151E+01
 -8.517  0.128E+01
 -8.507  0.136E+01
 -8.497  0.142E+01
 -8.487  0.131E+01
 -8.477  0.131E+01
 -8.467  0.214E+01
 -8.457  0.268E+01
 -8.447  0.242E+01
 -8.437  0.234E+01
 -8.427  0.326E+01
 -8.417  0.526E+01
 -8.407  0.653E+01
 -8.397  0.684E+01
 -8.387  0.726E+01
 -8.377  0.710E+01
 -8.367  0.599E+01
 -8.357  0.556E+01
 -8.347  0.441E+01
 -8.337  0.344E+01
 -8.327  0.336E+01
 -8.317  0.371E+01
 -8.307  0.413E+01
 -8.297  0.357E+01
 -8.287  0.255E+01
 -8.277  0.251E+01
 -8.267  0.274E+01
 -8.257  0.273E+01
 -8.247  0.341E+01
 -8.237  0.361E+01
 -8.227  0.320E+01
 -8.217  0.336E+01
 -8.207  0.402E+01
 -8.197  0.366E+01
 -8.187  0.204E+01
 -8.177  0.968E+00
 -8.167  0.606E+00
 -8.157  0.570E+00
 -8.147  0.644E+00
 -8.137  0.528E+00
 -8.127  0.727E+00
 -8.117  0.149E+01
 -8.107  0.181E+01
 -8.097  0.169E+01
 -8.087  0.160E+01
 -8.077  0.142E+01
 -8.067  0.112E+01
 -8.057  0.109E+01
 -8.047  0.157E+01
 -8.037  0.152E+01
 -8.027  0.126E+01
 -8.017  0.146E+01
 -8.007  0.140E+01
 -7.997  0.134E+01
 -7.987  0.139E+01
 -7.977  0.101E+01
 -7.967  0.550E+00
 -7.957  0.819E+00
 -7.947  0.119E+01
 -7.937  0.146E+01
 -7.927  0.181E+01
 -7.917  0.150E+01
 -7.907  0.111E+01
 -7.897  0.129E+01
 -7.887  0.183E+01
 -7.877  0.195E+01
 -7.867  0.118E+01
 -7.857  0.544E+00
 -7.847  0.268E+00
 -7.837  0.214E+00
 -7.827  0.641E+00
 -7.817  0.984E+00
 -7.807  0.695E+00
 -7.797  0.430E+00
 -7.787  0.360E+00
 -7.777  0.626E+00
 -7.767  0.873E+00
 -7.757  0.694E+00
 -7.747  0.406E+00
 -7.737  0.380E+00
 -7.727  0.646E+00
 -7.717  0.582E+00
 -7.707  0.531E+00
 -7.697  0.768E+00
 -7.687  0.721E+00
 -7.677  0.482E+00
 -7.667  0.402E+00
 -7.657  0.320E+00
 -7.647  0.194E+00
 -7.637  0.489E+00
 -7.627  0.980E+00
 -7.617  0.808E+00
 -7.607  0.443E+00
 -7.597  0.578E+00
 -7.587  0.760E+00
 -7.577  0.676E+00
 -7.567  0.402E+00
 -7.557  0.373E+00
 -7.547  0.584E+00
 -7.537  0.620E+00
 -7.527  0.448E+00
 -7.517  0.300E+00
 -7.507  0.350E+00
 -7.497  0.608E+00
 -7.487  0.662E+00
 -7.477  0.942E+00
 -7.467  0.172E+01
 -7.457  0.180E+01
 -7.447  0.130E+01
 -7.437  0.112E+01
 -7.427  0.115E+01
 -7.417  0.114E+01
 -7.407  0.982E+00
 -7.397  0.105E+01
 -7.387  0.157E+01
 -7.377  0.170E+01
 -7.367  0.884E+00
 -7.357  0.455E+00
 -7.347  0.916E+00
 -7.337  0.179E+01
 -7.327  0.209E+01
 -7.317  0.169E+01
 -7.307  0.154E+01
 -7.297  0.136E+01
 -7.287  0.138E+01
 -7.277  0.130E+01
 -7.267  0.113E+01
 -7.257  0.157E+01
 -7.247  0.271E+01
 -7.237  0.367E+01
 -7.227  0.322E+01
 -7.217  0.218E+01
 -7.207  0.177E+01
 -7.197  0.233E+01
 -7.187  0.270E+01
 -7.177  0.257E+01
 -7.167  0.290E+01
 -7.157  0.346E+01
 -7.147  0.409E+01
 -7.137  0.396E+01
 -7.127  0.321E+01
 -7.117  0.278E+01
 -7.107  0.250E+01
 -7.097  0.280E+01
 -7.087  0.354E+01
 -7.077  0.354E+01
 -7.067  0.349E+01
 -7.057  0.334E+01
 -7.047  0.326E+01
 -7.037  0.364E+01
 -7.027  0.302E+01
 -7.017  0.219E+01
 -7.007  0.236E+01
 -6.997  0.339E+01
 -6.987  0.410E+01
 -6.977  0.359E+01
 -6.967  0.286E+01
 -6.957  0.270E+01
 -6.947  0.276E+01
 -6.937  0.266E+01
 -6.927  0.198E+01
 -6.917  0.184E+01
 -6.907  0.199E+01
 -6.897  0.116E+01
 -6.887  0.489E+00
 -6.877  0.822E+00
 -6.867  0.122E+01
 -6.857  0.822E+00
 -6.847  0.429E+00
 -6.837  0.947E+00
 -6.827  0.210E+01
 -6.817  0.226E+01
 -6.807  0.140E+01
 -6.797  0.939E+00
 -6.787  0.666E+00
 -6.777  0.692E+00
 -6.767  0.116E+01
 -6.757  0.122E+01
 -6.747  0.118E+01
 -6.737  0.176E+01
 -6.727  0.208E+01
 -6.717  0.189E+01
 -6.707  0.137E+01
 -6.697  0.908E+00
 -6.687  0.168E+01
 -6.677  0.272E+01
 -6.667  0.247E+01
 -6.657  0.184E+01
 -6.647  0.165E+01
 -6.637  0.148E+01
 -6.627  0.181E+01
 -6.617  0.226E+01
 -6.607  0.274E+01
 -6.597  0.292E+01
 -6.587  0.273E+01
 -6.577  0.340E+01
 -6.567  0.389E+01
 -6.557  0.274E+01
 -6.547  0.197E+01
 -6.537  0.258E+01
 -6.527  0.236E+01
 -6.517  0.153E+01
 -6.507  0.164E+01
 -6.497  0.207E+01
 -6.487  0.223E+01
 -6.477  0.294E+01
 -6.467  0.266E+01
 -6.457  0.138E+01
 -6.447  0.752E+00
 -6.437  0.101E+01
 -6.427  0.163E+01
 -6.417  0.183E+01
 -6.407  0.199E+01
 -6.397  0.226E+01
 -6.387  0.192E+01
 -6.377  0.155E+01
 -6.367  0.127E+01
 -6.357  0.671E+00
 -6.347  0.274E+00
 -6.337  0.549E+00
 -6.327  0.942E+00
 -6.317  0.951E+00
 -6.307  0.911E+00
 -6.297  0.680E+00
 -6.287  0.240E+00
 -6.277  0.319E-01
 -6.267  0.148E-02
 -6.257  0.351E-04
 -6.247  0.768E-03
 -6.237  0.173E-01
 -6.227  0.132E+00
 -6.217  0.355E+00
 -6.207  0.440E+00
 -6.197  0.567E+00
 -6.187  0.559E+00
 -6.177  0.216E+00
 -6.167  0.322E-01
 -6.157  0.485E-01
 -6.147  0.208E+00
 -6.137  0.314E+00
 -6.127  0.206E+00
 -6.117  0.341E+00
 -6.107  0.736E+00
 -6.097  0.647E+00
 -6.087  0.338E+00
 -6.077  0.499E+00
 -6.067  0.573E+00
 -6.057  0.236E+00
 -6.047  0.600E-01
 -6.037  0.183E+00
 -6.027  0.446E+00
 -6.017  0.665E+00
 -6.007  0.110E+01
 -5.997  0.134E+01
 -5.987  0.990E+00
 -5.977  0.936E+00
 -5.967  0.129E+01
 -5.957  0.113E+01
 -5.947  0.114E+01
 -5.937  0.134E+01
 -5.927  0.165E+01
 -5.917  0.227E+01
 -5.907  0.215E+01
 -5.897  0.153E+01
 -5.887  0.117E+01
 -5.877  0.128E+01
 -5.867  0.171E+01
 -5.857  0.222E+01
 -5.847  0.263E+01
 -5.837  0.197E+01
 -5.827  0.134E+01
 -5.817  0.204E+01
 -5.807  0.365E+01
 -5.797  0.672E+01
 -5.787  0.836E+01
 -5.777  0.852E+01
 -5.767  0.101E+02
 -5.757  0.118E+02
 -5.747  0.124E+02
 -5.737  0.109E+02
 -5.727  0.107E+02
 -5.717  0.126E+02
 -5.707  0.115E+02
 -5.697  0.747E+01
 -5.687  0.392E+01
 -5.677  0.238E+01
 -5.667  0.302E+01
 -5.657  0.310E+01
 -5.647  0.199E+01
 -5.637  0.125E+01
 -5.627  0.120E+01
 -5.617  0.153E+01
 -5.607  0.193E+01
 -5.597  0.202E+01
 -5.587  0.196E+01
 -5.577  0.153E+01
 -5.567  0.801E+00
 -5.557  0.371E+00
 -5.547  0.808E+00
 -5.537  0.180E+01
 -5.527  0.193E+01
 -5.517  0.115E+01
 -5.507  0.634E+00
 -5.497  0.715E+00
 -5.487  0.841E+00
 -5.477  0.576E+00
 -5.467  0.349E+00
 -5.457  0.539E+00
 -5.447  0.760E+00
 -5.437  0.779E+00
 -5.427  0.623E+00
 -5.417  0.421E+00
 -5.407  0.317E+00
 -5.397  0.442E+00
 -5.387  0.721E+00
 -5.377  0.102E+01
 -5.367  0.118E+01
 -5.357  0.107E+01
 -5.347  0.838E+00
 -5.337  0.421E+00
 -5.327  0.199E+00
 -5.317  0.286E+00
 -5.307  0.376E+00
 -5.297  0.474E+00
 -5.287  0.451E+00
 -5.277  0.451E+00
 -5.267  0.518E+00
 -5.257  0.462E+00
 -5.247  0.455E+00
 -5.237  0.357E+00
 -5.227  0.196E+00
 -5.217  0.373E+00
 -5.207  0.580E+00
 -5.197  0.432E+00
 -5.187  0.276E+00
 -5.177  0.410E+00
 -5.167  0.569E+00
 -5.157  0.805E+00
 -5.147  0.104E+01
 -5.137  0.883E+00
 -5.127  0.574E+00
 -5.117  0.449E+00
 -5.107  0.331E+00
 -5.097  0.304E+00
 -5.087  0.283E+00
 -5.077  0.131E+00
 -5.067  0.134E+00
 -5.057  0.239E+00
 -5.047  0.328E+00
 -5.037  0.568E+00
 -5.027  0.790E+00
 -5.017  0.613E+00
 -5.007  0.543E+00
 -4.997  0.595E+00
 -4.987  0.438E+00
 -4.977  0.398E+00
 -4.967  0.617E+00
 -4.957  0.474E+00
 -4.947  0.158E+00
 -4.937  0.222E+00
 -4.927  0.630E+00
 -4.917  0.955E+00
 -4.907  0.111E+01
 -4.897  0.124E+01
 -4.887  0.142E+01
 -4.877  0.188E+01
 -4.867  0.243E+01
 -4.857  0.208E+01
 -4.847  0.163E+01
 -4.837  0.174E+01
 -4.827  0.140E+01
 -4.817  0.813E+00
 -4.807  0.721E+00
 -4.797  0.932E+00
 -4.787  0.110E+01
 -4.777  0.102E+01
 -4.767  0.820E+00
 -4.757  0.858E+00
 -4.747  0.107E+01
 -4.737  0.118E+01
 -4.727  0.118E+01
 -4.717  0.113E+01
 -4.707  0.140E+01
 -4.697  0.204E+01
 -4.687  0.184E+01
 -4.677  0.811E+00
 -4.667  0.517E+00
 -4.657  0.922E+00
 -4.647  0.119E+01
 -4.637  0.118E+01
 -4.627  0.914E+00
 -4.617  0.596E+00
 -4.607  0.333E+00
 -4.597  0.379E+00
 -4.587  0.102E+01
 -4.577  0.174E+01
 -4.567  0.155E+01
 -4.557  0.900E+00
 -4.547  0.549E+00
 -4.537  0.426E+00
 -4.527  0.429E+00
 -4.517  0.481E+00
 -4.507  0.478E+00
 -4.497  0.466E+00
 -4.487  0.554E+00
 -4.477  0.614E+00
 -4.467  0.801E+00
 -4.457  0.101E+01
 -4.447  0.777E+00
 -4.437  0.852E+00
 -4.427  0.146E+01
 -4.417  0.152E+01
 -4.407  0.826E+00
 -4.397  0.368E+00
 -4.387  0.284E+00
 -4.377  0.287E+00
 -4.367  0.375E+00
 -4.357  0.105E+01
 -4.347  0.179E+01
 -4.337  0.209E+01
 -4.327  0.221E+01
 -4.317  0.155E+01
 -4.307  0.881E+00
 -4.297  0.827E+00
 -4.287  0.908E+00
 -4.277  0.901E+00
 -4.267  0.752E+00
 -4.257  0.527E+00
 -4.247  0.405E+00
 -4.237  0.507E+00
 -4.227  0.429E+00
 -4.217  0.447E+00
 -4.207  0.810E+00
 -4.197  0.115E+01
 -4.187  0.140E+01
 -4.177  0.122E+01
 -4.167  0.932E+00
 -4.157  0.116E+01
 -4.147  0.129E+01
 -4.137  0.828E+00
 -4.127  0.320E+00
 -4.117  0.268E+00
 -4.107  0.589E+00
 -4.097  0.666E+00
 -4.087  0.562E+00
 -4.077  0.521E+00
 -4.067  0.439E+00
 -4.057  0.654E+00
 -4.047  0.139E+01
 -4.037  0.172E+01
 -4.027  0.123E+01
 -4.017  0.716E+00
 -4.007  0.623E+00
 -3.997  0.853E+00
 -3.987  0.742E+00
 -3.977  0.372E+00
 -3.967  0.254E+00
 -3.957  0.338E+00
 -3.947  0.496E+00
 -3.937  0.582E+00
 -3.927  0.810E+00
 -3.917  0.143E+01
 -3.907  0.155E+01
 -3.897  0.791E+00
 -3.887  0.356E+00
 -3.877  0.470E+00
 -3.867  0.462E+00
 -3.857  0.323E+00
 -3.847  0.408E+00
 -3.837  0.576E+00
 -3.827  0.801E+00
 -3.817  0.841E+00
 -3.807  0.101E+01
 -3.797  0.142E+01
 -3.787  0.108E+01
 -3.777  0.471E+00
 -3.767  0.409E+00
 -3.757  0.592E+00
 -3.747  0.851E+00
 -3.737  0.716E+00
 -3.727  0.400E+00
 -3.717  0.440E+00
 -3.707  0.698E+00
 -3.697  0.119E+01
 -3.687  0.133E+01
 -3.677  0.772E+00
 -3.667  0.249E+00
 -3.657  0.526E-01
 -3.647  0.130E+00
 -3.637  0.537E+00
 -3.627  0.866E+00
 -3.617  0.766E+00
 -3.607  0.859E+00
 -3.597  0.919E+00
 -3.587  0.617E+00
 -3.577  0.430E+00
 -3.567  0.619E+00
 -3.557  0.850E+00
 -3.547  0.667E+00
 -3.537  0.453E+00
 -3.527  0.414E+00
 -3.517  0.434E+00
 -3.507  0.462E+00
 -3.497  0.476E+00
 -3.487  0.452E+00
 -3.477  0.254E+00
 -3.467  0.791E-01
 -3.457  0.131E-01
 -3.447  0.963E-03
 -3.437  0.269E-04
 -3.427  0.267E-06
 -3.417  0.930E-09
 -3.407  0.112E-11
 -3.397  0.000E+00
 -3.387  0.000E+00
 -3.377  0.000E+00
 -3.367  0.000E+00
 -3.357  0.000E+00
 -3.347  0.000E+00
 -3.337  0.000E+00
 -3.327  0.000E+00
 -3.317  0.000E+00
 -3.307  0.000E+00
 -3.297  0.000E+00
 -3.287  0.000E+00
 -3.277  0.000E+00
 -3.267  0.000E+00
 -3.257  0.000E+00
 -3.247  0.000E+00
 -3.237  0.000E+00
 -3.227  0.000E+00
 -3.217  0.000E+00
 -3.207  0.000E+00
 -3.197  0.000E+00
 -3.187  0.000E+00
 -3.177  0.000E+00
 -3.167  0.000E+00
 -3.157  0.000E+00
 -3.147  0.000E+00
 -3.137  0.000E+00
 -3.127  0.000E+00
 -3.117  0.000E+00
 -3.107  0.000E+00
 -3.097  0.000E+00
 -3.087  0.000E+00
 -3.077  0.000E+00
 -3.067  0.000E+00
 -3.057  0.000E+00
 -3.047  0.000E+00
 -3.037  0.000E+00
 -3.027  0.000E+00
 -3.017  0.000E+00
 -3.007  0.000E+00
 -2.997  0.000E+00
 -2.987  0.000E+00
 -2.977  0.000E+00
 -2.967  0.000E+00
 -2.957  0.000E+00
 -2.947  0.000E+00
 -2.937  0.000E+00
 -2.927  0.000E+00
 -2.917  0.000E+00
 -2.907  0.000E+00
 -2.897  0.000E+00
 -2.887  0.000E+00
 -2.877  0.000E+00
 -2.867  0.000E+00
 -2.857  0.000E+00
 -2.847  0.000E+00
 -2.837  0.000E+00
 -2.827  0.000E+00
 -2.817  0.000E+00
 -2.807  0.000E+00
 -2.797  0.000E+00
 -2.787  0.000E+00
 -2.777  0.000E+00
 -2.767  0.000E+00
 -2.757  0.000E+00
 -2.747  0.000E+00
 -2.737  0.000E+00
 -2.727  0.000E+00
 -2.717  0.000E+00
 -2.707  0.000E+00
 -2.697  0.000E+00
 -2.687  0.000E+00
 -2.677  0.000E+00
 -2.667  0.000E+00
 -2.657  0.000E+00
 -2.647  0.000E+00
 -2.637  0.000E+00
 -2.627  0.000E+00
 -2.617  0.000E+00
 -2.607  0.000E+00
 -2.597  0.000E+00
 -2.587  0.000E+00
 -2.577  0.000E+00
 -2.567  0.000E+00
 -2.557  0.000E+00
 -2.547  0.000E+00
 -2.537  0.000E+00
 -2.527  0.000E+00
 -2.517  0.000E+00
 -2.507  0.000E+00
 -2.497  0.000E+00
 -2.487  0.000E+00
 -2.477  0.000E+00
 -2.467  0.000E+00
 -2.457  0.000E+00
 -2.447  0.000E+00
 -2.437  0.000E+00
 -2.427  0.000E+00
 -2.417  0.000E+00
 -2.407  0.000E+00
 -2.397  0.000E+00
 -2.387  0.000E+00
 -2.377  0.000E+00
 -2.367  0.000E+00
 -2.357  0.000E+00
 -2.347  0.000E+00
 -2.337  0.000E+00
 -2.327  0.000E+00
 -2.317  0.000E+00
 -2.307  0.000E+00
 -2.297  0.000E+00
 -2.287  0.000E+00
 -2.277  0.000E+00
 -2.267  0.000E+00
 -2.257  0.000E+00
 -2.247  0.000E+00
 -2.237  0.000E+00
 -2.227  0.109E-12
 -2.217  0.149E-09
 -2.207  0.691E-07
 -2.197  0.109E-04
 -2.187  0.584E-03
 -2.177  0.107E-01
 -2.167  0.686E-01
 -2.157  0.178E+00
 -2.147  0.283E+00
 -2.137  0.343E+00
 -2.127  0.335E+00
 -2.117  0.296E+00
 -2.107  0.138E+00
 -2.097  0.111E+00
 -2.087  0.373E+00
 -2.077  0.527E+00
 -2.067  0.259E+00
 -2.057  0.855E-01
 -2.047  0.246E+00
 -2.037  0.573E+00
 -2.027  0.604E+00
 -2.017  0.536E+00
 -2.007  0.614E+00
 -1.997  0.496E+00
 -1.987  0.359E+00
 -1.977  0.427E+00
 -1.967  0.665E+00
 -1.957  0.736E+00
 -1.947  0.971E+00
 -1.937  0.116E+01
 -1.927  0.922E+00
 -1.917  0.806E+00
 -1.907  0.106E+01
 -1.897  0.123E+01
 -1.887  0.118E+01
 -1.877  0.899E+00
 -1.867  0.778E+00