
     Program BANDS v.7.2 starts on 19Jun2025 at 13:28: 1 

     This program is part of the open-source Quantum ESPRESSO suite
     for quantum simulation of materials; please cite
         "P. Giannozzi et al., J. Phys.:Condens. Matter 21 395502 (2009);
         "P. Giannozzi et al., J. Phys.:Condens. Matter 29 465901 (2017);
         "P. Giannozzi et al., J. Chem. Phys. 152 154105 (2020);
          URL http://www.quantum-espresso.org", 
     in publications or presentations arising from this work. More details at
     http://www.quantum-espresso.org/quote

     Parallel version (MPI & OpenMP), running on      20 processor cores
     Number of MPI processes:                20
     Threads/MPI process:                     1

     MPI processes distributed on     1 nodes
     R & G space division:  proc/nbgrp/npool/nimage =      20
     78165 MiB available memory on the printing compute node when the environment starts


     Reading xml data from directory:

     ./tmp/mos2.save/

     IMPORTANT: XC functional enforced from input :
     Exchange-correlation= PZ
                           (   1   1   0   0   0   0   0)
     Any further DFT definition will be discarded
     Please, verify this is what you really want


     Parallelization info
     --------------------
     sticks:   dense  smooth     PW     G-vecs:    dense   smooth      PW
     Min         150      59     17                37712     9523    1427
     Max         151      60     18                37728     9544    1439
     Sum        3001    1189    349               754435   190631   28675

     Using Slab Decomposition


     negative rho (up, down):  2.934E-05 0.000E+00
     Reading collected, re-writing distributed wavefunctions
     high-symmetry point:  0.0000 0.0000 0.0000   x coordinate   0.0000
     high-symmetry point:  0.5000 0.2887 0.0000   x coordinate   0.5774
     high-symmetry point:  0.3330 0.5768 0.0000   x coordinate   0.9104
     high-symmetry point:  0.0000 0.0000 0.0000   x coordinate   1.5764

     Plottable bands (eV) written to file mos2.bands1.dat.gnu
     Bands written to file mos2.bands1.dat

 **************************************************************************

                    xk=(   0.00000,   0.00000,   0.00000  )

     point group C_3v (3m)  
     there are  3 classes
     the character table:

       E     2C3   3s_v 
A_1    1.00  1.00  1.00
A_2    1.00  1.00 -1.00
E      2.00 -1.00  0.00

     the symmetry operations in each class and the name of the first element:

     E        1
                                                                 
     2C3      2    3
                                                                 
     3s_v     4    5    6
                                                                 

     Band symmetry, C_3v (3m)   point group:

     e(  1 -  1) =    -61.42100  eV     1   --> A_1  L_1       
     e(  2 -  2) =    -35.62092  eV     1   --> A_1  L_1       
     e(  3 -  4) =    -35.40054  eV     2   --> E    L_3       
     e(  5 -  5) =    -14.72768  eV     1   --> A_1  L_1       
     e(  6 -  6) =    -13.40785  eV     1   --> A_1  L_1       
     e(  7 -  7) =     -6.31961  eV     1   --> A_1  L_1       
     e(  8 -  9) =     -3.30254  eV     2   --> E    L_3       
     e( 10 - 10) =     -2.45423  eV     1   --> A_1  L_1       
     e( 11 - 12) =     -2.17753  eV     2   --> E    L_3       
     e( 13 - 13) =     -0.71440  eV     1   --> A_1  L_1       
     e( 14 - 15) =      2.08921  eV     2   --> E    L_3       
     e( 16 - 17) =      2.33275  eV     2   --> E    L_3       

 **************************************************************************

 **************************************************************************

                    xk=(   0.02500,   0.01443,   0.00000  )

     point group C_s (m)    
     there are  2 classes
     the character table:

       E     s    
A'     1.00  1.00
A''    1.00 -1.00

     the symmetry operations in each class and the name of the first element:

     E        1
                                                                 
     s        2
                                                                 

     Band symmetry, C_s (m)     point group:

     e(  1 -  1) =    -61.42077  eV     1   --> A'             
     e(  2 -  2) =    -35.62045  eV     1   --> A'             
     e(  3 -  3) =    -35.40294  eV     1   --> A'             
     e(  4 -  4) =    -35.40108  eV     1   --> A''            
     e(  5 -  5) =    -14.71825  eV     1   --> A'             
     e(  6 -  6) =    -13.40394  eV     1   --> A'             
     e(  7 -  7) =     -6.30860  eV     1   --> A'             
     e(  8 -  8) =     -3.32454  eV     1   --> A'             
     e(  9 -  9) =     -3.29254  eV     1   --> A''            
     e( 10 - 10) =     -2.54054  eV     1   --> A'             
     e( 11 - 11) =     -2.19330  eV     1   --> A''            
     e( 12 - 12) =     -2.10417  eV     1   --> A'             
     e( 13 - 13) =     -0.71811  eV     1   --> A'             
     e( 14 - 14) =      2.07182  eV     1   --> A'             
     e( 15 - 15) =      2.10631  eV     1   --> A''            
     e( 16 - 16) =      2.30181  eV     1   --> A'             
     e( 17 - 17) =      2.32168  eV     1   --> A''            

 **************************************************************************

 **************************************************************************

                    xk=(   0.05000,   0.02887,   0.00000  )

     Band symmetry, C_s (m)     point group:

     e(  1 -  1) =    -61.42007  eV     1   --> A'             
     e(  2 -  2) =    -35.61906  eV     1   --> A'             
     e(  3 -  3) =    -35.41005  eV     1   --> A'             
     e(  4 -  4) =    -35.40270  eV     1   --> A''            
     e(  5 -  5) =    -14.69009  eV     1   --> A'             
     e(  6 -  6) =    -13.39230  eV     1   --> A'             
     e(  7 -  7) =     -6.27597  eV     1   --> A'             
     e(  8 -  8) =     -3.38887  eV     1   --> A'             
     e(  9 -  9) =     -3.26271  eV     1   --> A''            
     e( 10 - 10) =     -2.70275  eV     1   --> A'             
     e( 11 - 11) =     -2.23938  eV     1   --> A''            
     e( 12 - 12) =     -1.98203  eV     1   --> A'             
     e( 13 - 13) =     -0.73009  eV     1   --> A'             
     e( 14 - 14) =      2.02464  eV     1   --> A'             
     e( 15 - 15) =      2.15623  eV     1   --> A''            
     e( 16 - 16) =      2.21537  eV     1   --> A'             
     e( 17 - 17) =      2.28925  eV     1   --> A''            

 **************************************************************************

 **************************************************************************

                    xk=(   0.07500,   0.04330,   0.00000  )

     Band symmetry, C_s (m)     point group:

     e(  1 -  1) =    -61.41892  eV     1   --> A'             
     e(  2 -  2) =    -35.61677  eV     1   --> A'             
     e(  3 -  3) =    -35.42170  eV     1   --> A'             
     e(  4 -  4) =    -35.40535  eV     1   --> A''            
     e(  5 -  5) =    -14.64359  eV     1   --> A'             
     e(  6 -  6) =    -13.37306  eV     1   --> A'             
     e(  7 -  7) =     -6.22288  eV     1   --> A'             
     e(  8 -  8) =     -3.49088  eV     1   --> A'             
     e(  9 -  9) =     -3.21360  eV     1   --> A''            
     e( 10 - 10) =     -2.88438  eV     1   --> A'             
     e( 11 - 11) =     -2.31243  eV     1   --> A''            
     e( 12 - 12) =     -1.87095  eV     1   --> A'             
     e( 13 - 13) =     -0.75281  eV     1   --> A'             
     e( 14 - 14) =      1.96100  eV     1   --> A'             
     e( 15 - 15) =      2.08938  eV     1   --> A'             
     e( 16 - 16) =      2.23501  eV     1   --> A''            
     e( 17 - 17) =      2.23770  eV     1   --> A''            

 **************************************************************************

 **************************************************************************

                    xk=(   0.10000,   0.05774,   0.00000  )

     Band symmetry, C_s (m)     point group:

     e(  1 -  1) =    -61.41736  eV     1   --> A'             
     e(  2 -  2) =    -35.61365  eV     1   --> A'             
     e(  3 -  3) =    -35.43757  eV     1   --> A'             
     e(  4 -  4) =    -35.40896  eV     1   --> A''            
     e(  5 -  5) =    -14.57940  eV     1   --> A'             
     e(  6 -  6) =    -13.34651  eV     1   --> A'             
     e(  7 -  7) =     -6.15144  eV     1   --> A'             
     e(  8 -  8) =     -3.62356  eV     1   --> A'             
     e(  9 -  9) =     -3.14612  eV     1   --> A''            
     e( 10 - 10) =     -3.07409  eV     1   --> A'             
     e( 11 - 11) =     -2.40768  eV     1   --> A''            
     e( 12 - 12) =     -1.78698  eV     1   --> A'             
     e( 13 - 13) =     -0.79011  eV     1   --> A'             
     e( 14 - 14) =      1.89869  eV     1   --> A'             
     e( 15 - 15) =      1.94339  eV     1   --> A'             
     e( 16 - 16) =      2.17041  eV     1   --> A''            
     e( 17 - 17) =      2.33698  eV     1   --> A''            

 **************************************************************************

 **************************************************************************

                    xk=(   0.12500,   0.07217,   0.00000  )

     Band symmetry, C_s (m)     point group:

     e(  1 -  1) =    -61.41541  eV     1   --> A'             
     e(  2 -  2) =    -35.60977  eV     1   --> A'             
     e(  3 -  3) =    -35.45724  eV     1   --> A'             
     e(  4 -  4) =    -35.41344  eV     1   --> A''            
     e(  5 -  5) =    -14.49843  eV     1   --> A'             
     e(  6 -  6) =    -13.31303  eV     1   --> A'             
     e(  7 -  7) =     -6.06499  eV     1   --> A'             
     e(  8 -  8) =     -3.77838  eV     1   --> A'             
     e(  9 -  9) =     -3.26818  eV     1   --> A'             
     e( 10 - 10) =     -3.06159  eV     1   --> A''            
     e( 11 - 11) =     -2.51974  eV     1   --> A''            
     e( 12 - 12) =     -1.73816  eV     1   --> A'             
     e( 13 - 13) =     -0.84651  eV     1   --> A'             
     e( 14 - 14) =      1.79641  eV     1   --> A'             
     e( 15 - 15) =      1.85541  eV     1   --> A'             
     e( 16 - 16) =      2.09150  eV     1   --> A''            
     e( 17 - 17) =      2.45559  eV     1   --> A''            

 **************************************************************************

 **************************************************************************

                    xk=(   0.15000,   0.08660,   0.00000  )

     Band symmetry, C_s (m)     point group:

     e(  1 -  1) =    -61.41313  eV     1   --> A'             
     e(  2 -  2) =    -35.60522  eV     1   --> A'             
     e(  3 -  3) =    -35.48019  eV     1   --> A'             
     e(  4 -  4) =    -35.41868  eV     1   --> A''            
     e(  5 -  5) =    -14.40186  eV     1   --> A'             
     e(  6 -  6) =    -13.27313  eV     1   --> A'             
     e(  7 -  7) =     -5.96856  eV     1   --> A'             
     e(  8 -  8) =     -3.94573  eV     1   --> A'             
     e(  9 -  9) =     -3.46497  eV     1   --> A'             
     e( 10 - 10) =     -2.96172  eV     1   --> A''            
     e( 11 - 11) =     -2.64329  eV     1   --> A''            
     e( 12 - 12) =     -1.72806  eV     1   --> A'             
     e( 13 - 13) =     -0.92589  eV     1   --> A'             
     e( 14 - 14) =      1.66484  eV     1   --> A'             
     e( 15 - 15) =      1.84476  eV     1   --> A'             
     e( 16 - 16) =      2.00542  eV     1   --> A''            
     e( 17 - 17) =      2.58426  eV     1   --> A''            

 **************************************************************************

 **************************************************************************

                    xk=(   0.17500,   0.10104,   0.00000  )

     Band symmetry, C_s (m)     point group:

     e(  1 -  1) =    -61.41058  eV     1   --> A'             
     e(  2 -  2) =    -35.60012  eV     1   --> A'             
     e(  3 -  3) =    -35.50583  eV     1   --> A'             
     e(  4 -  4) =    -35.42456  eV     1   --> A''            
     e(  5 -  5) =    -14.29115  eV     1   --> A'             
     e(  6 -  6) =    -13.22745  eV     1   --> A'             
     e(  7 -  7) =     -5.86969  eV     1   --> A'             
     e(  8 -  8) =     -4.11498  eV     1   --> A'             
     e(  9 -  9) =     -3.66346  eV     1   --> A'             
     e( 10 - 10) =     -2.84866  eV     1   --> A''            
     e( 11 - 11) =     -2.77345  eV     1   --> A''            
     e( 12 - 12) =     -1.75525  eV     1   --> A'             
     e( 13 - 13) =     -1.02941  eV     1   --> A'             
     e( 14 - 14) =      1.56097  eV     1   --> A'             
     e( 15 - 15) =      1.87369  eV     1   --> A'             
     e( 16 - 16) =      1.91666  eV     1   --> A''            
     e( 17 - 17) =      2.71687  eV     1   --> A''            

 **************************************************************************

 **************************************************************************

                    xk=(   0.20000,   0.11547,   0.00000  )

     Band symmetry, C_s (m)     point group:

     e(  1 -  1) =    -61.40781  eV     1   --> A'             
     e(  2 -  2) =    -35.59458  eV     1   --> A'             
     e(  3 -  3) =    -35.53349  eV     1   --> A'             
     e(  4 -  4) =    -35.43091  eV     1   --> A''            
     e(  5 -  5) =    -14.16804  eV     1   --> A'             
     e(  6 -  6) =    -13.17676  eV     1   --> A'             
     e(  7 -  7) =     -5.77951  eV     1   --> A'             
     e(  8 -  8) =     -4.27388  eV     1   --> A'             
     e(  9 -  9) =     -3.86279  eV     1   --> A'             
     e( 10 - 10) =     -2.90599  eV     1   --> A''            
     e( 11 - 11) =     -2.72500  eV     1   --> A''            
     e( 12 - 12) =     -1.81362  eV     1   --> A'             
     e( 13 - 13) =     -1.15361  eV     1   --> A'             
     e( 14 - 14) =      1.49170  eV     1   --> A'             
     e( 15 - 15) =      1.82945  eV     1   --> A''            
     e( 16 - 16) =      1.94218  eV     1   --> A'             
     e( 17 - 17) =      2.84813  eV     1   --> A''            

 **************************************************************************

 **************************************************************************

                    xk=(   0.22500,   0.12990,   0.00000  )

     Band symmetry, C_s (m)     point group:

     e(  1 -  1) =    -61.40489  eV     1   --> A'             
     e(  2 -  2) =    -35.58875  eV     1   --> A'             
     e(  3 -  3) =    -35.56247  eV     1   --> A'             
     e(  4 -  4) =    -35.43759  eV     1   --> A''            
     e(  5 -  5) =    -14.03458  eV     1   --> A'             
     e(  6 -  6) =    -13.12200  eV     1   --> A'             
     e(  7 -  7) =     -5.71345  eV     1   --> A'             
     e(  8 -  8) =     -4.40819  eV     1   --> A'             
     e(  9 -  9) =     -4.06188  eV     1   --> A'             
     e( 10 - 10) =     -3.03734  eV     1   --> A''            
     e( 11 - 11) =     -2.59378  eV     1   --> A''            
     e( 12 - 12) =     -1.89400  eV     1   --> A'             
     e( 13 - 13) =     -1.28967  eV     1   --> A'             
     e( 14 - 14) =      1.45842  eV     1   --> A'             
     e( 15 - 15) =      1.74767  eV     1   --> A''            
     e( 16 - 16) =      2.04477  eV     1   --> A'             
     e( 17 - 17) =      2.97374  eV     1   --> A''            

 **************************************************************************

 **************************************************************************

                    xk=(   0.25000,   0.14434,   0.00000  )

     Band symmetry, C_s (m)     point group:

     e(  1 -  1) =    -61.40189  eV     1   --> A'             
     e(  2 -  2) =    -35.59205  eV     1   --> A'             
     e(  3 -  3) =    -35.58276  eV     1   --> A'             
     e(  4 -  4) =    -35.44443  eV     1   --> A''            
     e(  5 -  5) =    -13.89317  eV     1   --> A'             
     e(  6 -  6) =    -13.06423  eV     1   --> A'             
     e(  7 -  7) =     -5.68909  eV     1   --> A'             
     e(  8 -  8) =     -4.50390  eV     1   --> A'             
     e(  9 -  9) =     -4.25918  eV     1   --> A'             
     e( 10 - 10) =     -3.16455  eV     1   --> A''            
     e( 11 - 11) =     -2.45845  eV     1   --> A''            
     e( 12 - 12) =     -1.98657  eV     1   --> A'             
     e( 13 - 13) =     -1.42436  eV     1   --> A'             
     e( 14 - 14) =      1.45821  eV     1   --> A'             
     e( 15 - 15) =      1.67468  eV     1   --> A''            
     e( 16 - 16) =      2.17297  eV     1   --> A'             
     e( 17 - 17) =      3.09043  eV     1   --> A''            

 **************************************************************************

 **************************************************************************

                    xk=(   0.27500,   0.15877,   0.00000  )

     Band symmetry, C_s (m)     point group:

     e(  1 -  1) =    -61.39890  eV     1   --> A'             
     e(  2 -  2) =    -35.62149  eV     1   --> A'             
     e(  3 -  3) =    -35.57676  eV     1   --> A'             
     e(  4 -  4) =    -35.45126  eV     1   --> A''            
     e(  5 -  5) =    -13.74658  eV     1   --> A'             
     e(  6 -  6) =    -13.00471  eV     1   --> A'             
     e(  7 -  7) =     -5.71747  eV     1   --> A'             
     e(  8 -  8) =     -4.55555  eV     1   --> A'             
     e(  9 -  9) =     -4.45256  eV     1   --> A'             
     e( 10 - 10) =     -3.28520  eV     1   --> A''            
     e( 11 - 11) =     -2.32278  eV     1   --> A''            
     e( 12 - 12) =     -2.08267  eV     1   --> A'             
     e( 13 - 13) =     -1.54225  eV     1   --> A'             
     e( 14 - 14) =      1.48580  eV     1   --> A'             
     e( 15 - 15) =      1.61323  eV     1   --> A''            
     e( 16 - 16) =      2.31725  eV     1   --> A'             
     e( 17 - 17) =      3.19597  eV     1   --> A''            

 **************************************************************************

 **************************************************************************

                    xk=(   0.30000,   0.17321,   0.00000  )

     Band symmetry, C_s (m)     point group:

     e(  1 -  1) =    -61.39597  eV     1   --> A'             
     e(  2 -  2) =    -35.65007  eV     1   --> A'             
     e(  3 -  3) =    -35.57091  eV     1   --> A'             
     e(  4 -  4) =    -35.45791  eV     1   --> A''            
     e(  5 -  5) =    -13.59797  eV     1   --> A'             
     e(  6 -  6) =    -12.94483  eV     1   --> A'             
     e(  7 -  7) =     -5.79384  eV     1   --> A'             
     e(  8 -  8) =     -4.63926  eV     1   --> A'             
     e(  9 -  9) =     -4.57406  eV     1   --> A'             
     e( 10 - 10) =     -3.39732  eV     1   --> A''            
     e( 11 - 11) =     -2.19074  eV     1   --> A''            
     e( 12 - 12) =     -2.17565  eV     1   --> A'             
     e( 13 - 13) =     -1.62854  eV     1   --> A'             
     e( 14 - 14) =      1.53522  eV     1   --> A'             
     e( 15 - 15) =      1.56530  eV     1   --> A''            
     e( 16 - 16) =      2.46819  eV     1   --> A'             
     e( 17 - 17) =      3.28907  eV     1   --> A''            

 **************************************************************************

 **************************************************************************

                    xk=(   0.32500,   0.18764,   0.00000  )

     Band symmetry, C_s (m)     point group:

     e(  1 -  1) =    -61.39319  eV     1   --> A'             
     e(  2 -  2) =    -35.67711  eV     1   --> A'             
     e(  3 -  3) =    -35.56534  eV     1   --> A'             
     e(  4 -  4) =    -35.46422  eV     1   --> A''            
     e(  5 -  5) =    -13.45095  eV     1   --> A'             
     e(  6 -  6) =    -12.88613  eV     1   --> A'             
     e(  7 -  7) =     -5.90147  eV     1   --> A'             
     e(  8 -  8) =     -4.81603  eV     1   --> A'             
     e(  9 -  9) =     -4.58056  eV     1   --> A'             
     e( 10 - 10) =     -3.49934  eV     1   --> A''            
     e( 11 - 11) =     -2.26097  eV     1   --> A'             
     e( 12 - 12) =     -2.06627  eV     1   --> A''            
     e( 13 - 13) =     -1.67236  eV     1   --> A'             
     e( 14 - 14) =      1.53188  eV     1   --> A''            
     e( 15 - 15) =      1.60072  eV     1   --> A'             
     e( 16 - 16) =      2.61704  eV     1   --> A'             
     e( 17 - 17) =      3.36919  eV     1   --> A''            

 **************************************************************************

 **************************************************************************

                    xk=(   0.35000,   0.20207,   0.00000  )

     Band symmetry, C_s (m)     point group:

     e(  1 -  1) =    -61.39063  eV     1   --> A'             
     e(  2 -  2) =    -35.70197  eV     1   --> A'             
     e(  3 -  3) =    -35.56020  eV     1   --> A'             
     e(  4 -  4) =    -35.47003  eV     1   --> A''            
     e(  5 -  5) =    -13.30955  eV     1   --> A'             
     e(  6 -  6) =    -12.83027  eV     1   --> A'             
     e(  7 -  7) =     -6.02274  eV     1   --> A'             
     e(  8 -  8) =     -4.97930  eV     1   --> A'             
     e(  9 -  9) =     -4.59237  eV     1   --> A'             
     e( 10 - 10) =     -3.58996  eV     1   --> A''            
     e( 11 - 11) =     -2.33594  eV     1   --> A'             
     e( 12 - 12) =     -1.95299  eV     1   --> A''            
     e( 13 - 13) =     -1.67007  eV     1   --> A'             
     e( 14 - 14) =      1.51277  eV     1   --> A''            
     e( 15 - 15) =      1.67709  eV     1   --> A'             
     e( 16 - 16) =      2.75610  eV     1   --> A'             
     e( 17 - 17) =      3.43645  eV     1   --> A''            

 **************************************************************************

 **************************************************************************

                    xk=(   0.37500,   0.21651,   0.00000  )

     Band symmetry, C_s (m)     point group:

     e(  1 -  1) =    -61.38834  eV     1   --> A'             
     e(  2 -  2) =    -35.72405  eV     1   --> A'             
     e(  3 -  3) =    -35.55561  eV     1   --> A'             
     e(  4 -  4) =    -35.47521  eV     1   --> A''            
     e(  5 -  5) =    -13.17821  eV     1   --> A'             
     e(  6 -  6) =    -12.77899  eV     1   --> A'             
     e(  7 -  7) =     -6.14414  eV     1   --> A'             
     e(  8 -  8) =     -5.12536  eV     1   --> A'             
     e(  9 -  9) =     -4.61640  eV     1   --> A'             
     e( 10 - 10) =     -3.66817  eV     1   --> A''            
     e( 11 - 11) =     -2.39922  eV     1   --> A'             
     e( 12 - 12) =     -1.85394  eV     1   --> A''            
     e( 13 - 13) =     -1.62691  eV     1   --> A'             
     e( 14 - 14) =      1.50643  eV     1   --> A''            
     e( 15 - 15) =      1.75946  eV     1   --> A'             
     e( 16 - 16) =      2.87907  eV     1   --> A'             
     e( 17 - 17) =      3.49135  eV     1   --> A''            

 **************************************************************************

 **************************************************************************

                    xk=(   0.40000,   0.23094,   0.00000  )

     Band symmetry, C_s (m)     point group:

     e(  1 -  1) =    -61.38638  eV     1   --> A'             
     e(  2 -  2) =    -35.74286  eV     1   --> A'             
     e(  3 -  3) =    -35.55168  eV     1   --> A'             
     e(  4 -  4) =    -35.47963  eV     1   --> A''            
     e(  5 -  5) =    -13.06162  eV     1   --> A'             
     e(  6 -  6) =    -12.73402  eV     1   --> A'             
     e(  7 -  7) =     -6.25592  eV     1   --> A'             
     e(  8 -  8) =     -5.25065  eV     1   --> A'             
     e(  9 -  9) =     -4.65052  eV     1   --> A'             
     e( 10 - 10) =     -3.73316  eV     1   --> A''            
     e( 11 - 11) =     -2.45039  eV     1   --> A'             
     e( 12 - 12) =     -1.77136  eV     1   --> A''            
     e( 13 - 13) =     -1.55583  eV     1   --> A'             
     e( 14 - 14) =      1.50999  eV     1   --> A''            
     e( 15 - 15) =      1.84282  eV     1   --> A'             
     e( 16 - 16) =      2.98145  eV     1   --> A'             
     e( 17 - 17) =      3.53468  eV     1   --> A''            

 **************************************************************************

 **************************************************************************

                    xk=(   0.42500,   0.24537,   0.00000  )

     Band symmetry, C_s (m)     point group:

     e(  1 -  1) =    -61.38480  eV     1   --> A'             
     e(  2 -  2) =    -35.75794  eV     1   --> A'             
     e(  3 -  3) =    -35.54852  eV     1   --> A'             
     e(  4 -  4) =    -35.48318  eV     1   --> A''            
     e(  5 -  5) =    -12.96453  eV     1   --> A'             
     e(  6 -  6) =    -12.69701  eV     1   --> A'             
     e(  7 -  7) =     -6.35075  eV     1   --> A'             
     e(  8 -  8) =     -5.35189  eV     1   --> A'             
     e(  9 -  9) =     -4.68791  eV     1   --> A'             
     e( 10 - 10) =     -3.78432  eV     1   --> A''            
     e( 11 - 11) =     -2.48957  eV     1   --> A'             
     e( 12 - 12) =     -1.70660  eV     1   --> A''            
     e( 13 - 13) =     -1.47414  eV     1   --> A'             
     e( 14 - 14) =      1.51950  eV     1   --> A''            
     e( 15 - 15) =      1.92126  eV     1   --> A'             
     e( 16 - 16) =      3.06080  eV     1   --> A'             
     e( 17 - 17) =      3.56726  eV     1   --> A''            

 **************************************************************************

 **************************************************************************

                    xk=(   0.45000,   0.25981,   0.00000  )

     Band symmetry, C_s (m)     point group:

     e(  1 -  1) =    -61.38365  eV     1   --> A'             
     e(  2 -  2) =    -35.76897  eV     1   --> A'             
     e(  3 -  3) =    -35.54621  eV     1   --> A'             
     e(  4 -  4) =    -35.48578  eV     1   --> A''            
     e(  5 -  5) =    -12.89137  eV     1   --> A'             
     e(  6 -  6) =    -12.66941  eV     1   --> A'             
     e(  7 -  7) =     -6.42290  eV     1   --> A'             
     e(  8 -  8) =     -5.42633  eV     1   --> A'             
     e(  9 -  9) =     -4.72092  eV     1   --> A'             
     e( 10 - 10) =     -3.82117  eV     1   --> A''            
     e( 11 - 11) =     -2.51713  eV     1   --> A'             
     e( 12 - 12) =     -1.66029  eV     1   --> A''            
     e( 13 - 13) =     -1.39981  eV     1   --> A'             
     e( 14 - 14) =      1.53057  eV     1   --> A''            
     e( 15 - 15) =      1.98734  eV     1   --> A'             
     e( 16 - 16) =      3.11655  eV     1   --> A'             
     e( 17 - 17) =      3.58988  eV     1   --> A''            

 **************************************************************************

 **************************************************************************

                    xk=(   0.47500,   0.27424,   0.00000  )

     Band symmetry, C_s (m)     point group:

     e(  1 -  1) =    -61.38294  eV     1   --> A'             
     e(  2 -  2) =    -35.77569  eV     1   --> A'             
     e(  3 -  3) =    -35.54480  eV     1   --> A'             
     e(  4 -  4) =    -35.48737  eV     1   --> A''            
     e(  5 -  5) =    -12.84584  eV     1   --> A'             
     e(  6 -  6) =    -12.65236  eV     1   --> A'             
     e(  7 -  7) =     -6.46804  eV     1   --> A'             
     e(  8 -  8) =     -5.47187  eV     1   --> A'             
     e(  9 -  9) =     -4.74333  eV     1   --> A'             
     e( 10 - 10) =     -3.84341  eV     1   --> A''            
     e( 11 - 11) =     -2.53346  eV     1   --> A'             
     e( 12 - 12) =     -1.63256  eV     1   --> A''            
     e( 13 - 13) =     -1.34825  eV     1   --> A'             
     e( 14 - 14) =      1.53914  eV     1   --> A''            
     e( 15 - 15) =      2.03231  eV     1   --> A'             
     e( 16 - 16) =      3.14936  eV     1   --> A'             
     e( 17 - 17) =      3.60319  eV     1   --> A''            

 **************************************************************************

 **************************************************************************

                    xk=(   0.50000,   0.28868,   0.00000  )

     Band symmetry, C_s (m)     point group:

     e(  1 -  1) =    -61.38271  eV     1   --> A'             
     e(  2 -  2) =    -35.77795  eV     1   --> A'             
     e(  3 -  3) =    -35.54432  eV     1   --> A'             
     e(  4 -  4) =    -35.48790  eV     1   --> A''            
     e(  5 -  5) =    -12.83037  eV     1   --> A'             
     e(  6 -  6) =    -12.64659  eV     1   --> A'             
     e(  7 -  7) =     -6.48340  eV     1   --> A'             
     e(  8 -  8) =     -5.48720  eV     1   --> A'             
     e(  9 -  9) =     -4.75123  eV     1   --> A'             
     e( 10 - 10) =     -3.85084  eV     1   --> A''            
     e( 11 - 11) =     -2.53887  eV     1   --> A'             
     e( 12 - 12) =     -1.62333  eV     1   --> A''            
     e( 13 - 13) =     -1.32984  eV     1   --> A'             
     e( 14 - 14) =      1.54235  eV     1   --> A''            
     e( 15 - 15) =      2.04838  eV     1   --> A'             
     e( 16 - 16) =      3.16016  eV     1   --> A'             
     e( 17 - 17) =      3.60758  eV     1   --> A''            

 **************************************************************************

 **************************************************************************

                    xk=(   0.49165,   0.30308,   0.00000  )

     point group C_1 (1)    
     there are  1 classes
     the character table:

       E    
A      1.00

     the symmetry operations in each class and the name of the first element:

     E        1
                                                                 

     Band symmetry, C_1 (1)     point group:

     e(  1 -  1) =    -61.38268  eV     1   --> A              
     e(  2 -  2) =    -35.77763  eV     1   --> A              
     e(  3 -  3) =    -35.54427  eV     1   --> A              
     e(  4 -  4) =    -35.48856  eV     1   --> A              
     e(  5 -  5) =    -12.82897  eV     1   --> A              
     e(  6 -  6) =    -12.64570  eV     1   --> A              
     e(  7 -  7) =     -6.47928  eV     1   --> A              
     e(  8 -  8) =     -5.49051  eV     1   --> A              
     e(  9 -  9) =     -4.74973  eV     1   --> A              
     e( 10 - 10) =     -3.85171  eV     1   --> A              
     e( 11 - 11) =     -2.53791  eV     1   --> A              
     e( 12 - 12) =     -1.65778  eV     1   --> A              
     e( 13 - 13) =     -1.30995  eV     1   --> A              
     e( 14 - 14) =      1.54409  eV     1   --> A              
     e( 15 - 15) =      2.04971  eV     1   --> A              
     e( 16 - 16) =      3.16595  eV     1   --> A              
     e( 17 - 17) =      3.59384  eV     1   --> A              

 **************************************************************************

 **************************************************************************

                    xk=(   0.48330,   0.31748,   0.00000  )

     Band symmetry, C_1 (1)     point group:

     e(  1 -  1) =    -61.38260  eV     1   --> A              
     e(  2 -  2) =    -35.77667  eV     1   --> A              
     e(  3 -  3) =    -35.54411  eV     1   --> A              
     e(  4 -  4) =    -35.49052  eV     1   --> A              
     e(  5 -  5) =    -12.82481  eV     1   --> A              
     e(  6 -  6) =    -12.64305  eV     1   --> A              
     e(  7 -  7) =     -6.46694  eV     1   --> A              
     e(  8 -  8) =     -5.50040  eV     1   --> A              
     e(  9 -  9) =     -4.74527  eV     1   --> A              
     e( 10 - 10) =     -3.85410  eV     1   --> A              
     e( 11 - 11) =     -2.53522  eV     1   --> A              
     e( 12 - 12) =     -1.74329  eV     1   --> A              
     e( 13 - 13) =     -1.26754  eV     1   --> A              
     e( 14 - 14) =      1.54874  eV     1   --> A              
     e( 15 - 15) =      2.05402  eV     1   --> A              
     e( 16 - 16) =      3.18289  eV     1   --> A              
     e( 17 - 17) =      3.55423  eV     1   --> A              

 **************************************************************************

 **************************************************************************

                    xk=(   0.47495,   0.33189,   0.00000  )

     Band symmetry, C_1 (1)     point group:

     e(  1 -  1) =    -61.38247  eV     1   --> A              
     e(  2 -  2) =    -35.77508  eV     1   --> A              
     e(  3 -  3) =    -35.54386  eV     1   --> A              
     e(  4 -  4) =    -35.49377  eV     1   --> A              
     e(  5 -  5) =    -12.81793  eV     1   --> A              
     e(  6 -  6) =    -12.63867  eV     1   --> A              
     e(  7 -  7) =     -6.44646  eV     1   --> A              
     e(  8 -  8) =     -5.51681  eV     1   --> A              
     e(  9 -  9) =     -4.73795  eV     1   --> A              
     e( 10 - 10) =     -3.85737  eV     1   --> A              
     e( 11 - 11) =     -2.53136  eV     1   --> A              
     e( 12 - 12) =     -1.85841  eV     1   --> A              
     e( 13 - 13) =     -1.22234  eV     1   --> A              
     e( 14 - 14) =      1.55467  eV     1   --> A              
     e( 15 - 15) =      2.06233  eV     1   --> A              
     e( 16 - 16) =      3.20920  eV     1   --> A              
     e( 17 - 17) =      3.49366  eV     1   --> A              

 **************************************************************************

 **************************************************************************

                    xk=(   0.46660,   0.34629,   0.00000  )

     Band symmetry, C_1 (1)     point group:

     e(  1 -  1) =    -61.38230  eV     1   --> A              
     e(  2 -  2) =    -35.77286  eV     1   --> A              
     e(  3 -  3) =    -35.54351  eV     1   --> A              
     e(  4 -  4) =    -35.49825  eV     1   --> A              
     e(  5 -  5) =    -12.80847  eV     1   --> A              
     e(  6 -  6) =    -12.63267  eV     1   --> A              
     e(  7 -  7) =     -6.41793  eV     1   --> A              
     e(  8 -  8) =     -5.53954  eV     1   --> A              
     e(  9 -  9) =     -4.72795  eV     1   --> A              
     e( 10 - 10) =     -3.86058  eV     1   --> A              
     e( 11 - 11) =     -2.52716  eV     1   --> A              
     e( 12 - 12) =     -1.99345  eV     1   --> A              
     e( 13 - 13) =     -1.18140  eV     1   --> A              
     e( 14 - 14) =      1.55939  eV     1   --> A              
     e( 15 - 15) =      2.07621  eV     1   --> A              
     e( 16 - 16) =      3.23846  eV     1   --> A              
     e( 17 - 17) =      3.42277  eV     1   --> A              

 **************************************************************************

 **************************************************************************

                    xk=(   0.45825,   0.36070,   0.00000  )

     Band symmetry, C_1 (1)     point group:

     e(  1 -  1) =    -61.38208  eV     1   --> A              
     e(  2 -  2) =    -35.77003  eV     1   --> A              
     e(  3 -  3) =    -35.54307  eV     1   --> A              
     e(  4 -  4) =    -35.50392  eV     1   --> A              
     e(  5 -  5) =    -12.79658  eV     1   --> A              
     e(  6 -  6) =    -12.62513  eV     1   --> A              
     e(  7 -  7) =     -6.38153  eV     1   --> A              
     e(  8 -  8) =     -5.56832  eV     1   --> A              
     e(  9 -  9) =     -4.71553  eV     1   --> A              
     e( 10 - 10) =     -3.86261  eV     1   --> A              
     e( 11 - 11) =     -2.52365  eV     1   --> A              
     e( 12 - 12) =     -2.14379  eV     1   --> A              
     e( 13 - 13) =     -1.14597  eV     1   --> A              
     e( 14 - 14) =      1.55995  eV     1   --> A              
     e( 15 - 15) =      2.09745  eV     1   --> A              
     e( 16 - 16) =      3.23911  eV     1   --> A              
     e( 17 - 17) =      3.37745  eV     1   --> A              

 **************************************************************************

 **************************************************************************

                    xk=(   0.44990,   0.37510,   0.00000  )

     Band symmetry, C_1 (1)     point group:

     e(  1 -  1) =    -61.38182  eV     1   --> A              
     e(  2 -  2) =    -35.76660  eV     1   --> A              
     e(  3 -  3) =    -35.54255  eV     1   --> A              
     e(  4 -  4) =    -35.51070  eV     1   --> A              
     e(  5 -  5) =    -12.78245  eV     1   --> A              
     e(  6 -  6) =    -12.61621  eV     1   --> A              
     e(  7 -  7) =     -6.33746  eV     1   --> A              
     e(  8 -  8) =     -5.60269  eV     1   --> A              
     e(  9 -  9) =     -4.70100  eV     1   --> A              
     e( 10 - 10) =     -3.86238  eV     1   --> A              
     e( 11 - 11) =     -2.52190  eV     1   --> A              
     e( 12 - 12) =     -2.30635  eV     1   --> A              
     e( 13 - 13) =     -1.11530  eV     1   --> A              
     e( 14 - 14) =      1.55364  eV     1   --> A              
     e( 15 - 15) =      2.12752  eV     1   --> A              
     e( 16 - 16) =      3.16937  eV     1   --> A              
     e( 17 - 17) =      3.40336  eV     1   --> A              

 **************************************************************************

 **************************************************************************

                    xk=(   0.44155,   0.38951,   0.00000  )

     Band symmetry, C_1 (1)     point group:

     e(  1 -  1) =    -61.38152  eV     1   --> A              
     e(  2 -  2) =    -35.76260  eV     1   --> A              
     e(  3 -  3) =    -35.54196  eV     1   --> A              
     e(  4 -  4) =    -35.51850  eV     1   --> A              
     e(  5 -  5) =    -12.76635  eV     1   --> A              
     e(  6 -  6) =    -12.60607  eV     1   --> A              
     e(  7 -  7) =     -6.28596  eV     1   --> A              
     e(  8 -  8) =     -5.64202  eV     1   --> A              
     e(  9 -  9) =     -4.68476  eV     1   --> A              
     e( 10 - 10) =     -3.85892  eV     1   --> A              
     e( 11 - 11) =     -2.52293  eV     1   --> A              
     e( 12 - 12) =     -2.47854  eV     1   --> A              
     e( 13 - 13) =     -1.08795  eV     1   --> A              
     e( 14 - 14) =      1.53858  eV     1   --> A              
     e( 15 - 15) =      2.16706  eV     1   --> A              
     e( 16 - 16) =      3.07075  eV     1   --> A              
     e( 17 - 17) =      3.46198  eV     1   --> A              

 **************************************************************************

 **************************************************************************

                    xk=(   0.43320,   0.40391,   0.00000  )

     Band symmetry, C_1 (1)     point group:

     e(  1 -  1) =    -61.38120  eV     1   --> A              
     e(  2 -  2) =    -35.75803  eV     1   --> A              
     e(  3 -  3) =    -35.54132  eV     1   --> A              
     e(  4 -  4) =    -35.52723  eV     1   --> A              
     e(  5 -  5) =    -12.74855  eV     1   --> A              
     e(  6 -  6) =    -12.59491  eV     1   --> A              
     e(  7 -  7) =     -6.22735  eV     1   --> A              
     e(  8 -  8) =     -5.68548  eV     1   --> A              
     e(  9 -  9) =     -4.66728  eV     1   --> A              
     e( 10 - 10) =     -3.85150  eV     1   --> A              
     e( 11 - 11) =     -2.65793  eV     1   --> A              
     e( 12 - 12) =     -2.52765  eV     1   --> A              
     e( 13 - 13) =     -1.06230  eV     1   --> A              
     e( 14 - 14) =      1.51407  eV     1   --> A              
     e( 15 - 15) =      2.21566  eV     1   --> A              
     e( 16 - 16) =      2.96675  eV     1   --> A              
     e( 17 - 17) =      3.53186  eV     1   --> A              

 **************************************************************************

 **************************************************************************

                    xk=(   0.42485,   0.41832,   0.00000  )

     Band symmetry, C_1 (1)     point group:

     e(  1 -  1) =    -61.38085  eV     1   --> A              
     e(  2 -  2) =    -35.75292  eV     1   --> A              
     e(  3 -  3) =    -35.54063  eV     1   --> A              
     e(  4 -  4) =    -35.53676  eV     1   --> A              
     e(  5 -  5) =    -12.72938  eV     1   --> A              
     e(  6 -  6) =    -12.58296  eV     1   --> A              
     e(  7 -  7) =     -6.16197  eV     1   --> A              
     e(  8 -  8) =     -5.73207  eV     1   --> A              
     e(  9 -  9) =     -4.64911  eV     1   --> A              
     e( 10 - 10) =     -3.83965  eV     1   --> A              
     e( 11 - 11) =     -2.84214  eV     1   --> A              
     e( 12 - 12) =     -2.53677  eV     1   --> A              
     e( 13 - 13) =     -1.03680  eV     1   --> A              
     e( 14 - 14) =      1.48034  eV     1   --> A              
     e( 15 - 15) =      2.27205  eV     1   --> A              
     e( 16 - 16) =      2.86432  eV     1   --> A              
     e( 17 - 17) =      3.60728  eV     1   --> A              

 **************************************************************************

 **************************************************************************

                    xk=(   0.41650,   0.43272,   0.00000  )

     Band symmetry, C_1 (1)     point group:

     e(  1 -  1) =    -61.38049  eV     1   --> A              
     e(  2 -  2) =    -35.74732  eV     1   --> A              
     e(  3 -  3) =    -35.54698  eV     1   --> A              
     e(  4 -  4) =    -35.53990  eV     1   --> A              
     e(  5 -  5) =    -12.70923  eV     1   --> A              
     e(  6 -  6) =    -12.57046  eV     1   --> A              
     e(  7 -  7) =     -6.09022  eV     1   --> A              
     e(  8 -  8) =     -5.78068  eV     1   --> A              
     e(  9 -  9) =     -4.63091  eV     1   --> A              
     e( 10 - 10) =     -3.82317  eV     1   --> A              
     e( 11 - 11) =     -3.02879  eV     1   --> A              
     e( 12 - 12) =     -2.55080  eV     1   --> A              
     e( 13 - 13) =     -1.01014  eV     1   --> A              
     e( 14 - 14) =      1.43834  eV     1   --> A              
     e( 15 - 15) =      2.33451  eV     1   --> A              
     e( 16 - 16) =      2.76696  eV     1   --> A              
     e( 17 - 17) =      3.68518  eV     1   --> A              

 **************************************************************************

 **************************************************************************

                    xk=(   0.40815,   0.44713,   0.00000  )

     Band symmetry, C_1 (1)     point group:

     e(  1 -  1) =    -61.38012  eV     1   --> A              
     e(  2 -  2) =    -35.74124  eV     1   --> A              
     e(  3 -  3) =    -35.55774  eV     1   --> A              
     e(  4 -  4) =    -35.53917  eV     1   --> A              
     e(  5 -  5) =    -12.68851  eV     1   --> A              
     e(  6 -  6) =    -12.55771  eV     1   --> A              
     e(  7 -  7) =     -6.01259  eV     1   --> A              
     e(  8 -  8) =     -5.83007  eV     1   --> A              
     e(  9 -  9) =     -4.61349  eV     1   --> A              
     e( 10 - 10) =     -3.80215  eV     1   --> A              
     e( 11 - 11) =     -3.21539  eV     1   --> A              
     e( 12 - 12) =     -2.56992  eV     1   --> A              
     e( 13 - 13) =     -0.98131  eV     1   --> A              
     e( 14 - 14) =      1.38934  eV     1   --> A              
     e( 15 - 15) =      2.40111  eV     1   --> A              
     e( 16 - 16) =      2.67695  eV     1   --> A              
     e( 17 - 17) =      3.76308  eV     1   --> A              

 **************************************************************************

 **************************************************************************

                    xk=(   0.39980,   0.46153,   0.00000  )

     Band symmetry, C_1 (1)     point group:

     e(  1 -  1) =    -61.37975  eV     1   --> A              
     e(  2 -  2) =    -35.73475  eV     1   --> A              
     e(  3 -  3) =    -35.56890  eV     1   --> A              
     e(  4 -  4) =    -35.53844  eV     1   --> A              
     e(  5 -  5) =    -12.66765  eV     1   --> A              
     e(  6 -  6) =    -12.54498  eV     1   --> A              
     e(  7 -  7) =     -5.92961  eV     1   --> A              
     e(  8 -  8) =     -5.87898  eV     1   --> A              
     e(  9 -  9) =     -4.59793  eV     1   --> A              
     e( 10 - 10) =     -3.77694  eV     1   --> A              
     e( 11 - 11) =     -3.39927  eV     1   --> A              
     e( 12 - 12) =     -2.59405  eV     1   --> A              
     e( 13 - 13) =     -0.94972  eV     1   --> A              
     e( 14 - 14) =      1.33488  eV     1   --> A              
     e( 15 - 15) =      2.46989  eV     1   --> A              
     e( 16 - 16) =      2.59585  eV     1   --> A              
     e( 17 - 17) =      3.83877  eV     1   --> A              

 **************************************************************************

 **************************************************************************

                    xk=(   0.39145,   0.47594,   0.00000  )

     Band symmetry, C_1 (1)     point group:

     e(  1 -  1) =    -61.37939  eV     1   --> A              
     e(  2 -  2) =    -35.72788  eV     1   --> A              
     e(  3 -  3) =    -35.58029  eV     1   --> A              
     e(  4 -  4) =    -35.53772  eV     1   --> A              
     e(  5 -  5) =    -12.64715  eV     1   --> A              
     e(  6 -  6) =    -12.53259  eV     1   --> A              
     e(  7 -  7) =     -5.92614  eV     1   --> A              
     e(  8 -  8) =     -5.84199  eV     1   --> A              
     e(  9 -  9) =     -4.58574  eV     1   --> A              
     e( 10 - 10) =     -3.74815  eV     1   --> A              
     e( 11 - 11) =     -3.57724  eV     1   --> A              
     e( 12 - 12) =     -2.62272  eV     1   --> A              
     e( 13 - 13) =     -0.91527  eV     1   --> A              
     e( 14 - 14) =      1.27672  eV     1   --> A              
     e( 15 - 15) =      2.52468  eV     1   --> A              
     e( 16 - 16) =      2.53890  eV     1   --> A              
     e( 17 - 17) =      3.91016  eV     1   --> A              

 **************************************************************************

 **************************************************************************

                    xk=(   0.38310,   0.49034,   0.00000  )

     Band symmetry, C_1 (1)     point group:

     e(  1 -  1) =    -61.37905  eV     1   --> A              
     e(  2 -  2) =    -35.72071  eV     1   --> A              
     e(  3 -  3) =    -35.59172  eV     1   --> A              
     e(  4 -  4) =    -35.53704  eV     1   --> A              
     e(  5 -  5) =    -12.62752  eV     1   --> A              
     e(  6 -  6) =    -12.52085  eV     1   --> A              
     e(  7 -  7) =     -5.97030  eV     1   --> A              
     e(  8 -  8) =     -5.75058  eV     1   --> A              
     e(  9 -  9) =     -4.57926  eV     1   --> A              
     e( 10 - 10) =     -3.74522  eV     1   --> A              
     e( 11 - 11) =     -3.71666  eV     1   --> A              
     e( 12 - 12) =     -2.65510  eV     1   --> A              
     e( 13 - 13) =     -0.87839  eV     1   --> A              
     e( 14 - 14) =      1.21687  eV     1   --> A              
     e( 15 - 15) =      2.46404  eV     1   --> A              
     e( 16 - 16) =      2.60614  eV     1   --> A              
     e( 17 - 17) =      3.97535  eV     1   --> A              

 **************************************************************************

 **************************************************************************

                    xk=(   0.37475,   0.50475,   0.00000  )

     Band symmetry, C_1 (1)     point group:

     e(  1 -  1) =    -61.37874  eV     1   --> A              
     e(  2 -  2) =    -35.71334  eV     1   --> A              
     e(  3 -  3) =    -35.60300  eV     1   --> A              
     e(  4 -  4) =    -35.53642  eV     1   --> A              
     e(  5 -  5) =    -12.60931  eV     1   --> A              
     e(  6 -  6) =    -12.51010  eV     1   --> A              
     e(  7 -  7) =     -6.01029  eV     1   --> A              
     e(  8 -  8) =     -5.65661  eV     1   --> A              
     e(  9 -  9) =     -4.58222  eV     1   --> A              
     e( 10 - 10) =     -3.89744  eV     1   --> A              
     e( 11 - 11) =     -3.68371  eV     1   --> A              
     e( 12 - 12) =     -2.68985  eV     1   --> A              
     e( 13 - 13) =     -0.84017  eV     1   --> A              
     e( 14 - 14) =      1.15769  eV     1   --> A              
     e( 15 - 15) =      2.41414  eV     1   --> A              
     e( 16 - 16) =      2.66951  eV     1   --> A              
     e( 17 - 17) =      4.03270  eV     1   --> A              

 **************************************************************************

 **************************************************************************

                    xk=(   0.36640,   0.51915,   0.00000  )

     Band symmetry, C_1 (1)     point group:

     e(  1 -  1) =    -61.37846  eV     1   --> A              
     e(  2 -  2) =    -35.70592  eV     1   --> A              
     e(  3 -  3) =    -35.61385  eV     1   --> A              
     e(  4 -  4) =    -35.53588  eV     1   --> A              
     e(  5 -  5) =    -12.59308  eV     1   --> A              
     e(  6 -  6) =    -12.50064  eV     1   --> A              
     e(  7 -  7) =     -6.04501  eV     1   --> A              
     e(  8 -  8) =     -5.56189  eV     1   --> A              
     e(  9 -  9) =     -4.60016  eV     1   --> A              
     e( 10 - 10) =     -4.02580  eV     1   --> A              
     e( 11 - 11) =     -3.65092  eV     1   --> A              
     e( 12 - 12) =     -2.72512  eV     1   --> A              
     e( 13 - 13) =     -0.80237  eV     1   --> A              
     e( 14 - 14) =      1.10192  eV     1   --> A              
     e( 15 - 15) =      2.37485  eV     1   --> A              
     e( 16 - 16) =      2.72681  eV     1   --> A              
     e( 17 - 17) =      4.08083  eV     1   --> A              

 **************************************************************************

 **************************************************************************

                    xk=(   0.35805,   0.53356,   0.00000  )

     Band symmetry, C_1 (1)     point group:

     e(  1 -  1) =    -61.37823  eV     1   --> A              
     e(  2 -  2) =    -35.69871  eV     1   --> A              
     e(  3 -  3) =    -35.62391  eV     1   --> A              
     e(  4 -  4) =    -35.53542  eV     1   --> A              
     e(  5 -  5) =    -12.57942  eV     1   --> A              
     e(  6 -  6) =    -12.49280  eV     1   --> A              
     e(  7 -  7) =     -6.07345  eV     1   --> A              
     e(  8 -  8) =     -5.46953  eV     1   --> A              
     e(  9 -  9) =     -4.63823  eV     1   --> A              
     e( 10 - 10) =     -4.12128  eV     1   --> A              
     e( 11 - 11) =     -3.62043  eV     1   --> A              
     e( 12 - 12) =     -2.75841  eV     1   --> A              
     e( 13 - 13) =     -0.76746  eV     1   --> A              
     e( 14 - 14) =      1.05271  eV     1   --> A              
     e( 15 - 15) =      2.34574  eV     1   --> A              
     e( 16 - 16) =      2.77569  eV     1   --> A              
     e( 17 - 17) =      4.11876  eV     1   --> A              

 **************************************************************************

 **************************************************************************

                    xk=(   0.34970,   0.54796,   0.00000  )

     Band symmetry, C_1 (1)     point group:

     e(  1 -  1) =    -61.37806  eV     1   --> A              
     e(  2 -  2) =    -35.69220  eV     1   --> A              
     e(  3 -  3) =    -35.63258  eV     1   --> A              
     e(  4 -  4) =    -35.53507  eV     1   --> A              
     e(  5 -  5) =    -12.56892  eV     1   --> A              
     e(  6 -  6) =    -12.48687  eV     1   --> A              
     e(  7 -  7) =     -6.09473  eV     1   --> A              
     e(  8 -  8) =     -5.38541  eV     1   --> A              
     e(  9 -  9) =     -4.69364  eV     1   --> A              
     e( 10 - 10) =     -4.18016  eV     1   --> A              
     e( 11 - 11) =     -3.59494  eV     1   --> A              
     e( 12 - 12) =     -2.78658  eV     1   --> A              
     e( 13 - 13) =     -0.73849  eV     1   --> A              
     e( 14 - 14) =      1.01352  eV     1   --> A              
     e( 15 - 15) =      2.32615  eV     1   --> A              
     e( 16 - 16) =      2.81365  eV     1   --> A              
     e( 17 - 17) =      4.14589  eV     1   --> A              

 **************************************************************************

 **************************************************************************

                    xk=(   0.34135,   0.56237,   0.00000  )

     Band symmetry, C_1 (1)     point group:

     e(  1 -  1) =    -61.37795  eV     1   --> A              
     e(  2 -  2) =    -35.68732  eV     1   --> A              
     e(  3 -  3) =    -35.63883  eV     1   --> A              
     e(  4 -  4) =    -35.53485  eV     1   --> A              
     e(  5 -  5) =    -12.56216  eV     1   --> A              
     e(  6 -  6) =    -12.48312  eV     1   --> A              
     e(  7 -  7) =     -6.10804  eV     1   --> A              
     e(  8 -  8) =     -5.32110  eV     1   --> A              
     e(  9 -  9) =     -4.74823  eV     1   --> A              
     e( 10 - 10) =     -4.20844  eV     1   --> A              
     e( 11 - 11) =     -3.57750  eV     1   --> A              
     e( 12 - 12) =     -2.80604  eV     1   --> A              
     e( 13 - 13) =     -0.71882  eV     1   --> A              
     e( 14 - 14) =      0.98781  eV     1   --> A              
     e( 15 - 15) =      2.31517  eV     1   --> A              
     e( 16 - 16) =      2.83823  eV     1   --> A              
     e( 17 - 17) =      4.16202  eV     1   --> A              

 **************************************************************************

 **************************************************************************

                    xk=(   0.33300,   0.57677,   0.00000  )

     Band symmetry, C_1 (1)     point group:

     e(  1 -  1) =    -61.37791  eV     1   --> A              
     e(  2 -  2) =    -35.68540  eV     1   --> A              
     e(  3 -  3) =    -35.64124  eV     1   --> A              
     e(  4 -  4) =    -35.53477  eV     1   --> A              
     e(  5 -  5) =    -12.55972  eV     1   --> A              
     e(  6 -  6) =    -12.48179  eV     1   --> A              
     e(  7 -  7) =     -6.11273  eV     1   --> A              
     e(  8 -  8) =     -5.29512  eV     1   --> A              
     e(  9 -  9) =     -4.77294  eV     1   --> A              
     e( 10 - 10) =     -4.21614  eV     1   --> A              
     e( 11 - 11) =     -3.57102  eV     1   --> A              
     e( 12 - 12) =     -2.81335  eV     1   --> A              
     e( 13 - 13) =     -0.71151  eV     1   --> A              
     e( 14 - 14) =      0.97852  eV     1   --> A              
     e( 15 - 15) =      2.31170  eV     1   --> A              
     e( 16 - 16) =      2.84710  eV     1   --> A              
     e( 17 - 17) =      4.16741  eV     1   --> A              

 **************************************************************************

 **************************************************************************

                    xk=(   0.31635,   0.54793,   0.00000  )

     Band symmetry, C_1 (1)     point group:

     e(  1 -  1) =    -61.37808  eV     1   --> A              
     e(  2 -  2) =    -35.69138  eV     1   --> A              
     e(  3 -  3) =    -35.63313  eV     1   --> A              
     e(  4 -  4) =    -35.53512  eV     1   --> A              
     e(  5 -  5) =    -12.57056  eV     1   --> A              
     e(  6 -  6) =    -12.48747  eV     1   --> A              
     e(  7 -  7) =     -6.09299  eV     1   --> A              
     e(  8 -  8) =     -5.38293  eV     1   --> A              
     e(  9 -  9) =     -4.67992  eV     1   --> A              
     e( 10 - 10) =     -4.19505  eV     1   --> A              
     e( 11 - 11) =     -3.59782  eV     1   --> A              
     e( 12 - 12) =     -2.78205  eV     1   --> A              
     e( 13 - 13) =     -0.74295  eV     1   --> A              
     e( 14 - 14) =      1.01664  eV     1   --> A              
     e( 15 - 15) =      2.32264  eV     1   --> A              
     e( 16 - 16) =      2.80880  eV     1   --> A              
     e( 17 - 17) =      4.14778  eV     1   --> A              

 **************************************************************************

 **************************************************************************

                    xk=(   0.29970,   0.51910,   0.00000  )

     Band symmetry, C_1 (1)     point group:

     e(  1 -  1) =    -61.37862  eV     1   --> A              
     e(  2 -  2) =    -35.70104  eV     1   --> A              
     e(  3 -  3) =    -35.61688  eV     1   --> A              
     e(  4 -  4) =    -35.53620  eV     1   --> A              
     e(  5 -  5) =    -12.60458  eV     1   --> A              
     e(  6 -  6) =    -12.50469  eV     1   --> A              
     e(  7 -  7) =     -6.03360  eV     1   --> A              
     e(  8 -  8) =     -5.53591  eV     1   --> A              
     e(  9 -  9) =     -4.50744  eV     1   --> A              
     e( 10 - 10) =     -4.13761  eV     1   --> A              
     e( 11 - 11) =     -3.66659  eV     1   --> A              
     e( 12 - 12) =     -2.69725  eV     1   --> A              
     e( 13 - 13) =     -0.82979  eV     1   --> A              
     e( 14 - 14) =      1.11823  eV     1   --> A              
     e( 15 - 15) =      2.34619  eV     1   --> A              
     e( 16 - 16) =      2.69639  eV     1   --> A              
     e( 17 - 17) =      4.09735  eV     1   --> A              

 **************************************************************************

 **************************************************************************

                    xk=(   0.28305,   0.49026,   0.00000  )

     Band symmetry, C_1 (1)     point group:

     e(  1 -  1) =    -61.37957  eV     1   --> A              
     e(  2 -  2) =    -35.70822  eV     1   --> A              
     e(  3 -  3) =    -35.59822  eV     1   --> A              
     e(  4 -  4) =    -35.53809  eV     1   --> A              
     e(  5 -  5) =    -12.66418  eV     1   --> A              
     e(  6 -  6) =    -12.53370  eV     1   --> A              
     e(  7 -  7) =     -5.93345  eV     1   --> A              
     e(  8 -  8) =     -5.67205  eV     1   --> A              
     e(  9 -  9) =     -4.36348  eV     1   --> A              
     e( 10 - 10) =     -4.02065  eV     1   --> A              
     e( 11 - 11) =     -3.75524  eV     1   --> A              
     e( 12 - 12) =     -2.57756  eV     1   --> A              
     e( 13 - 13) =     -0.95223  eV     1   --> A              
     e( 14 - 14) =      1.25390  eV     1   --> A              
     e( 15 - 15) =      2.36887  eV     1   --> A              
     e( 16 - 16) =      2.52225  eV     1   --> A              
     e( 17 - 17) =      4.02856  eV     1   --> A              

 **************************************************************************

 **************************************************************************

                    xk=(   0.26640,   0.46142,   0.00000  )

     Band symmetry, C_1 (1)     point group:

     e(  1 -  1) =    -61.38094  eV     1   --> A              
     e(  2 -  2) =    -35.71097  eV     1   --> A              
     e(  3 -  3) =    -35.57887  eV     1   --> A              
     e(  4 -  4) =    -35.54083  eV     1   --> A              
     e(  5 -  5) =    -12.75011  eV     1   --> A              
     e(  6 -  6) =    -12.57401  eV     1   --> A              
     e(  7 -  7) =     -5.79317  eV     1   --> A              
     e(  8 -  8) =     -5.76866  eV     1   --> A              
     e(  9 -  9) =     -4.29196  eV     1   --> A              
     e( 10 - 10) =     -3.84452  eV     1   --> A              
     e( 11 - 11) =     -3.82993  eV     1   --> A              
     e( 12 - 12) =     -2.43976  eV     1   --> A              
     e( 13 - 13) =     -1.08654  eV     1   --> A              
     e( 14 - 14) =      1.38680  eV     1   --> A              
     e( 15 - 15) =      2.31306  eV     1   --> A              
     e( 16 - 16) =      2.37701  eV     1   --> A              
     e( 17 - 17) =      3.95425  eV     1   --> A              

 **************************************************************************

 **************************************************************************

                    xk=(   0.24975,   0.43258,   0.00000  )

     Band symmetry, C_1 (1)     point group:

     e(  1 -  1) =    -61.38274  eV     1   --> A              
     e(  2 -  2) =    -35.70857  eV     1   --> A              
     e(  3 -  3) =    -35.55952  eV     1   --> A              
     e(  4 -  4) =    -35.54444  eV     1   --> A              
     e(  5 -  5) =    -12.86128  eV     1   --> A              
     e(  6 -  6) =    -12.62448  eV     1   --> A              
     e(  7 -  7) =     -5.82035  eV     1   --> A              
     e(  8 -  8) =     -5.61494  eV     1   --> A              
     e(  9 -  9) =     -4.27252  eV     1   --> A              
     e( 10 - 10) =     -3.92160  eV     1   --> A              
     e( 11 - 11) =     -3.60205  eV     1   --> A              
     e( 12 - 12) =     -2.29528  eV     1   --> A              
     e( 13 - 13) =     -1.21374  eV     1   --> A              
     e( 14 - 14) =      1.47856  eV     1   --> A              
     e( 15 - 15) =      2.10702  eV     1   --> A              
     e( 16 - 16) =      2.35955  eV     1   --> A              
     e( 17 - 17) =      3.88394  eV     1   --> A              

 **************************************************************************

 **************************************************************************

                    xk=(   0.23310,   0.40374,   0.00000  )

     Band symmetry, C_1 (1)     point group:

     e(  1 -  1) =    -61.38497  eV     1   --> A              
     e(  2 -  2) =    -35.70077  eV     1   --> A              
     e(  3 -  3) =    -35.54889  eV     1   --> A              
     e(  4 -  4) =    -35.54056  eV     1   --> A              
     e(  5 -  5) =    -12.99487  eV     1   --> A              
     e(  6 -  6) =    -12.68349  eV     1   --> A              
     e(  7 -  7) =     -5.82855  eV     1   --> A              
     e(  8 -  8) =     -5.40242  eV     1   --> A              
     e(  9 -  9) =     -4.28811  eV     1   --> A              
     e( 10 - 10) =     -3.97793  eV     1   --> A              
     e( 11 - 11) =     -3.36603  eV     1   --> A              
     e( 12 - 12) =     -2.15217  eV     1   --> A              
     e( 13 - 13) =     -1.32205  eV     1   --> A              
     e( 14 - 14) =      1.48730  eV     1   --> A              
     e( 15 - 15) =      1.95528  eV     1   --> A              
     e( 16 - 16) =      2.31147  eV     1   --> A              
     e( 17 - 17) =      3.82006  eV     1   --> A              

 **************************************************************************

 **************************************************************************

                    xk=(   0.21645,   0.37490,   0.00000  )

     Band symmetry, C_1 (1)     point group:

     e(  1 -  1) =    -61.38757  eV     1   --> A              
     e(  2 -  2) =    -35.68765  eV     1   --> A              
     e(  3 -  3) =    -35.55411  eV     1   --> A              
     e(  4 -  4) =    -35.52228  eV     1   --> A              
     e(  5 -  5) =    -13.14670  eV     1   --> A              
     e(  6 -  6) =    -12.74915  eV     1   --> A              
     e(  7 -  7) =     -5.79924  eV     1   --> A              
     e(  8 -  8) =     -5.16076  eV     1   --> A              
     e(  9 -  9) =     -4.33226  eV     1   --> A              
     e( 10 - 10) =     -4.00727  eV     1   --> A              
     e( 11 - 11) =     -3.13657  eV     1   --> A              
     e( 12 - 12) =     -2.01661  eV     1   --> A              
     e( 13 - 13) =     -1.40659  eV     1   --> A              
     e( 14 - 14) =      1.40532  eV     1   --> A              
     e( 15 - 15) =      1.88356  eV     1   --> A              
     e( 16 - 16) =      2.23555  eV     1   --> A              
     e( 17 - 17) =      3.75686  eV     1   --> A              

 **************************************************************************

 **************************************************************************

                    xk=(   0.19980,   0.34606,   0.00000  )

     Band symmetry, C_1 (1)     point group:

     e(  1 -  1) =    -61.39052  eV     1   --> A              
     e(  2 -  2) =    -35.66956  eV     1   --> A              
     e(  3 -  3) =    -35.56000  eV     1   --> A              
     e(  4 -  4) =    -35.50489  eV     1   --> A              
     e(  5 -  5) =    -13.31180  eV     1   --> A              
     e(  6 -  6) =    -12.81942  eV     1   --> A              
     e(  7 -  7) =     -5.74291  eV     1   --> A              
     e(  8 -  8) =     -4.89715  eV     1   --> A              
     e(  9 -  9) =     -4.39645  eV     1   --> A              
     e( 10 - 10) =     -4.00417  eV     1   --> A              
     e( 11 - 11) =     -2.92657  eV     1   --> A              
     e( 12 - 12) =     -1.89364  eV     1   --> A              
     e( 13 - 13) =     -1.46627  eV     1   --> A              
     e( 14 - 14) =      1.30133  eV     1   --> A              
     e( 15 - 15) =      1.84744  eV     1   --> A              
     e( 16 - 16) =      2.14062  eV     1   --> A              
     e( 17 - 17) =      3.68366  eV     1   --> A              

 **************************************************************************

 **************************************************************************

                    xk=(   0.18315,   0.31723,   0.00000  )

     Band symmetry, C_1 (1)     point group:

     e(  1 -  1) =    -61.39373  eV     1   --> A              
     e(  2 -  2) =    -35.64708  eV     1   --> A              
     e(  3 -  3) =    -35.56644  eV     1   --> A              
     e(  4 -  4) =    -35.48859  eV     1   --> A              
     e(  5 -  5) =    -13.48486  eV     1   --> A              
     e(  6 -  6) =    -12.89225  eV     1   --> A              
     e(  7 -  7) =     -5.67617  eV     1   --> A              
     e(  8 -  8) =     -4.62233  eV     1   --> A              
     e(  9 -  9) =     -4.46399  eV     1   --> A              
     e( 10 - 10) =     -3.96187  eV     1   --> A              
     e( 11 - 11) =     -2.75444  eV     1   --> A              
     e( 12 - 12) =     -1.78737  eV     1   --> A              
     e( 13 - 13) =     -1.49622  eV     1   --> A              
     e( 14 - 14) =      1.23324  eV     1   --> A              
     e( 15 - 15) =      1.81376  eV     1   --> A              
     e( 16 - 16) =      2.03796  eV     1   --> A              
     e( 17 - 17) =      3.59007  eV     1   --> A              

 **************************************************************************

 **************************************************************************

                    xk=(   0.16650,   0.28839,   0.00000  )

     Band symmetry, C_1 (1)     point group:

     e(  1 -  1) =    -61.39714  eV     1   --> A              
     e(  2 -  2) =    -35.62097  eV     1   --> A              
     e(  3 -  3) =    -35.57325  eV     1   --> A              
     e(  4 -  4) =    -35.47348  eV     1   --> A              
     e(  5 -  5) =    -13.66064  eV     1   --> A              
     e(  6 -  6) =    -12.96569  eV     1   --> A              
     e(  7 -  7) =     -5.62383  eV     1   --> A              
     e(  8 -  8) =     -4.50795  eV     1   --> A              
     e(  9 -  9) =     -4.35429  eV     1   --> A              
     e( 10 - 10) =     -3.86850  eV     1   --> A              
     e( 11 - 11) =     -2.64582  eV     1   --> A              
     e( 12 - 12) =     -1.70111  eV     1   --> A              
     e( 13 - 13) =     -1.48174  eV     1   --> A              
     e( 14 - 14) =      1.22001  eV     1   --> A              
     e( 15 - 15) =      1.78202  eV     1   --> A              
     e( 16 - 16) =      1.93865  eV     1   --> A              
     e( 17 - 17) =      3.47003  eV     1   --> A              

 **************************************************************************

 **************************************************************************

                    xk=(   0.14985,   0.25955,   0.00000  )

     Band symmetry, C_1 (1)     point group:

     e(  1 -  1) =    -61.40065  eV     1   --> A              
     e(  2 -  2) =    -35.59219  eV     1   --> A              
     e(  3 -  3) =    -35.58027  eV     1   --> A              
     e(  4 -  4) =    -35.45969  eV     1   --> A              
     e(  5 -  5) =    -13.83424  eV     1   --> A              
     e(  6 -  6) =    -13.03789  eV     1   --> A              
     e(  7 -  7) =     -5.61454  eV     1   --> A              
     e(  8 -  8) =     -4.49687  eV     1   --> A              
     e(  9 -  9) =     -4.11936  eV     1   --> A              
     e( 10 - 10) =     -3.70583  eV     1   --> A              
     e( 11 - 11) =     -2.62008  eV     1   --> A              
     e( 12 - 12) =     -1.63740  eV     1   --> A              
     e( 13 - 13) =     -1.40907  eV     1   --> A              
     e( 14 - 14) =      1.25832  eV     1   --> A              
     e( 15 - 15) =      1.76438  eV     1   --> A              
     e( 16 - 16) =      1.85247  eV     1   --> A              
     e( 17 - 17) =      3.32309  eV     1   --> A              

 **************************************************************************

 **************************************************************************

                    xk=(   0.13320,   0.23071,   0.00000  )

     Band symmetry, C_1 (1)     point group:

     e(  1 -  1) =    -61.40416  eV     1   --> A              
     e(  2 -  2) =    -35.58729  eV     1   --> A              
     e(  3 -  3) =    -35.56184  eV     1   --> A              
     e(  4 -  4) =    -35.44728  eV     1   --> A              
     e(  5 -  5) =    -14.00121  eV     1   --> A              
     e(  6 -  6) =    -13.10715  eV     1   --> A              
     e(  7 -  7) =     -5.66221  eV     1   --> A              
     e(  8 -  8) =     -4.41467  eV     1   --> A              
     e(  9 -  9) =     -3.92636  eV     1   --> A              
     e( 10 - 10) =     -3.47522  eV     1   --> A              
     e( 11 - 11) =     -2.66911  eV     1   --> A              
     e( 12 - 12) =     -1.59815  eV     1   --> A              
     e( 13 - 13) =     -1.28787  eV     1   --> A              
     e( 14 - 14) =      1.33424  eV     1   --> A              
     e( 15 - 15) =      1.77541  eV     1   --> A              
     e( 16 - 16) =      1.78780  eV     1   --> A              
     e( 17 - 17) =      3.15363  eV     1   --> A              

 **************************************************************************

 **************************************************************************

                    xk=(   0.11655,   0.20187,   0.00000  )

     Band symmetry, C_1 (1)     point group:

     e(  1 -  1) =    -61.40757  eV     1   --> A              
     e(  2 -  2) =    -35.59411  eV     1   --> A              
     e(  3 -  3) =    -35.53109  eV     1   --> A              
     e(  4 -  4) =    -35.43630  eV     1   --> A              
     e(  5 -  5) =    -14.15762  eV     1   --> A              
     e(  6 -  6) =    -13.17194  eV     1   --> A              
     e(  7 -  7) =     -5.75492  eV     1   --> A              
     e(  8 -  8) =     -4.27258  eV     1   --> A              
     e(  9 -  9) =     -3.75025  eV     1   --> A              
     e( 10 - 10) =     -3.21369  eV     1   --> A              
     e( 11 - 11) =     -2.76446  eV     1   --> A              
     e( 12 - 12) =     -1.58487  eV     1   --> A              
     e( 13 - 13) =     -1.14680  eV     1   --> A              
     e( 14 - 14) =      1.43404  eV     1   --> A              
     e( 15 - 15) =      1.75148  eV     1   --> A              
     e( 16 - 16) =      1.82444  eV     1   --> A              
     e( 17 - 17) =      2.96943  eV     1   --> A              

 **************************************************************************

 **************************************************************************

                    xk=(   0.09990,   0.17303,   0.00000  )

     Band symmetry, C_1 (1)     point group:

     e(  1 -  1) =    -61.41078  eV     1   --> A              
     e(  2 -  2) =    -35.60052  eV     1   --> A              
     e(  3 -  3) =    -35.50118  eV     1   --> A              
     e(  4 -  4) =    -35.42678  eV     1   --> A              
     e(  5 -  5) =    -14.30003  eV     1   --> A              
     e(  6 -  6) =    -13.23090  eV     1   --> A              
     e(  7 -  7) =     -5.87015  eV     1   --> A              
     e(  8 -  8) =     -4.09442  eV     1   --> A              
     e(  9 -  9) =     -3.56968  eV     1   --> A              
     e( 10 - 10) =     -2.95592  eV     1   --> A              
     e( 11 - 11) =     -2.87905  eV     1   --> A              
     e( 12 - 12) =     -1.59890  eV     1   --> A              
     e( 13 - 13) =     -1.01284  eV     1   --> A              
     e( 14 - 14) =      1.55328  eV     1   --> A              
     e( 15 - 15) =      1.74825  eV     1   --> A              
     e( 16 - 16) =      1.90789  eV     1   --> A              
     e( 17 - 17) =      2.78018  eV     1   --> A              

 **************************************************************************

 **************************************************************************

                    xk=(   0.08325,   0.14419,   0.00000  )

     Band symmetry, C_1 (1)     point group:

     e(  1 -  1) =    -61.41369  eV     1   --> A              
     e(  2 -  2) =    -35.60633  eV     1   --> A              
     e(  3 -  3) =    -35.47332  eV     1   --> A              
     e(  4 -  4) =    -35.41873  eV     1   --> A              
     e(  5 -  5) =    -14.42551  eV     1   --> A              
     e(  6 -  6) =    -13.28283  eV     1   --> A              
     e(  7 -  7) =     -5.98917  eV     1   --> A              
     e(  8 -  8) =     -3.90239  eV     1   --> A              
     e(  9 -  9) =     -3.37772  eV     1   --> A              
     e( 10 - 10) =     -2.99438  eV     1   --> A              
     e( 11 - 11) =     -2.72249  eV     1   --> A              
     e( 12 - 12) =     -1.64150  eV     1   --> A              
     e( 13 - 13) =     -0.90243  eV     1   --> A              
     e( 14 - 14) =      1.69462  eV     1   --> A              
     e( 15 - 15) =      1.77946  eV     1   --> A              
     e( 16 - 16) =      2.01023  eV     1   --> A              
     e( 17 - 17) =      2.59642  eV     1   --> A              

 **************************************************************************

 **************************************************************************

                    xk=(   0.06660,   0.11535,   0.00000  )

     Band symmetry, C_1 (1)     point group:

     e(  1 -  1) =    -61.41620  eV     1   --> A              
     e(  2 -  2) =    -35.61135  eV     1   --> A              
     e(  3 -  3) =    -35.44869  eV     1   --> A              
     e(  4 -  4) =    -35.41217  eV     1   --> A              
     e(  5 -  5) =    -14.53156  eV     1   --> A              
     e(  6 -  6) =    -13.32671  eV     1   --> A              
     e(  7 -  7) =     -6.09925  eV     1   --> A              
     e(  8 -  8) =     -3.71493  eV     1   --> A              
     e(  9 -  9) =     -3.17482  eV     1   --> A              
     e( 10 - 10) =     -3.09889  eV     1   --> A              
     e( 11 - 11) =     -2.52557  eV     1   --> A              
     e( 12 - 12) =     -1.71358  eV     1   --> A              
     e( 13 - 13) =     -0.82140  eV     1   --> A              
     e( 14 - 14) =      1.84108  eV     1   --> A              
     e( 15 - 15) =      1.85638  eV     1   --> A              
     e( 16 - 16) =      2.11370  eV     1   --> A              
     e( 17 - 17) =      2.42870  eV     1   --> A              

 **************************************************************************

 **************************************************************************

                    xk=(   0.04995,   0.08652,   0.00000  )

     Band symmetry, C_1 (1)     point group:

     e(  1 -  1) =    -61.41825  eV     1   --> A              
     e(  2 -  2) =    -35.61544  eV     1   --> A              
     e(  3 -  3) =    -35.42834  eV     1   --> A              
     e(  4 -  4) =    -35.40707  eV     1   --> A              
     e(  5 -  5) =    -14.61617  eV     1   --> A              
     e(  6 -  6) =    -13.36171  eV     1   --> A              
     e(  7 -  7) =     -6.19198  eV     1   --> A              
     e(  8 -  8) =     -3.54812  eV     1   --> A              
     e(  9 -  9) =     -3.18547  eV     1   --> A              
     e( 10 - 10) =     -2.96518  eV     1   --> A              
     e( 11 - 11) =     -2.37167  eV     1   --> A              
     e( 12 - 12) =     -1.81500  eV     1   --> A              
     e( 13 - 13) =     -0.76776  eV     1   --> A              
     e( 14 - 14) =      1.92206  eV     1   --> A              
     e( 15 - 15) =      2.02597  eV     1   --> A              
     e( 16 - 16) =      2.20468  eV     1   --> A              
     e( 17 - 17) =      2.28684  eV     1   --> A              

 **************************************************************************

 **************************************************************************

                    xk=(   0.03330,   0.05768,   0.00000  )

     Band symmetry, C_1 (1)     point group:

     e(  1 -  1) =    -61.41976  eV     1   --> A              
     e(  2 -  2) =    -35.61845  eV     1   --> A              
     e(  3 -  3) =    -35.41312  eV     1   --> A              
     e(  4 -  4) =    -35.40344  eV     1   --> A              
     e(  5 -  5) =    -14.67774  eV     1   --> A              
     e(  6 -  6) =    -13.38719  eV     1   --> A              
     e(  7 -  7) =     -6.26176  eV     1   --> A              
     e(  8 -  8) =     -3.41636  eV     1   --> A              
     e(  9 -  9) =     -3.24977  eV     1   --> A              
     e( 10 - 10) =     -2.75618  eV     1   --> A              
     e( 11 - 11) =     -2.26294  eV     1   --> A              
     e( 12 - 12) =     -1.94288  eV     1   --> A              
     e( 13 - 13) =     -0.73576  eV     1   --> A              
     e( 14 - 14) =      2.00431  eV     1   --> A              
     e( 15 - 15) =      2.17919  eV     1   --> A              
     e( 16 - 16) =      2.18072  eV     1   --> A              
     e( 17 - 17) =      2.27446  eV     1   --> A              

 **************************************************************************

 **************************************************************************

                    xk=(   0.01665,   0.02884,   0.00000  )

     Band symmetry, C_1 (1)     point group:

     e(  1 -  1) =    -61.42069  eV     1   --> A              
     e(  2 -  2) =    -35.62030  eV     1   --> A              
     e(  3 -  3) =    -35.40372  eV     1   --> A              
     e(  4 -  4) =    -35.40127  eV     1   --> A              
     e(  5 -  5) =    -14.71514  eV     1   --> A              
     e(  6 -  6) =    -13.40266  eV     1   --> A              
     e(  7 -  7) =     -6.30498  eV     1   --> A              
     e(  8 -  8) =     -3.33174  eV     1   --> A              
     e(  9 -  9) =     -3.28925  eV     1   --> A              
     e( 10 - 10) =     -2.56301  eV     1   --> A              
     e( 11 - 11) =     -2.19871  eV     1   --> A              
     e( 12 - 12) =     -2.08578  eV     1   --> A              
     e( 13 - 13) =     -0.71937  eV     1   --> A              
     e( 14 - 14) =      2.06615  eV     1   --> A              
     e( 15 - 15) =      2.11202  eV     1   --> A              
     e( 16 - 16) =      2.29188  eV     1   --> A              
     e( 17 - 17) =      2.31799  eV     1   --> A              

 **************************************************************************

 **************************************************************************

                    xk=(   0.00000,   0.00000,   0.00000  )

     point group C_3v (3m)  
     there are  3 classes
     the character table:

       E     2C3   3s_v 
A_1    1.00  1.00  1.00
A_2    1.00  1.00 -1.00
E      2.00 -1.00  0.00

     the symmetry operations in each class and the name of the first element:

     E        1
                                                                 
     2C3      2    3
                                                                 
     3s_v     4    5    6
                                                                 

     Band symmetry, C_3v (3m)   point group:

     e(  1 -  1) =    -61.42100  eV     1   --> A_1  L_1       
     e(  2 -  2) =    -35.62092  eV     1   --> A_1  L_1       
     e(  3 -  4) =    -35.40054  eV     2   --> E    L_3       
     e(  5 -  5) =    -14.72768  eV     1   --> A_1  L_1       
     e(  6 -  6) =    -13.40785  eV     1   --> A_1  L_1       
     e(  7 -  7) =     -6.31961  eV     1   --> A_1  L_1       
     e(  8 -  9) =     -3.30254  eV     2   --> E    L_3       
     e( 10 - 10) =     -2.45423  eV     1   --> A_1  L_1       
     e( 11 - 12) =     -2.17753  eV     2   --> E    L_3       
     e( 13 - 13) =     -0.71440  eV     1   --> A_1  L_1       
     e( 14 - 15) =      2.08921  eV     2   --> E    L_3       
     e( 16 - 17) =      2.33275  eV     2   --> E    L_3       

 **************************************************************************

     BANDS        :     34.73s CPU     38.15s WALL


   This run was terminated on:  13:28:39  19Jun2025            

=------------------------------------------------------------------------------=
   JOB DONE.
=------------------------------------------------------------------------------=
