
     Program PWSCF v.7.2 starts on 19Jun2025 at 13:26:52 

     This program is part of the open-source Quantum ESPRESSO suite
     for quantum simulation of materials; please cite
         "P. Giannozzi et al., J. Phys.:Condens. Matter 21 395502 (2009);
         "P. Giannozzi et al., J. Phys.:Condens. Matter 29 465901 (2017);
         "P. Giannozzi et al., J. Chem. Phys. 152 154105 (2020);
          URL http://www.quantum-espresso.org", 
     in publications or presentations arising from this work. More details at
     http://www.quantum-espresso.org/quote

     Parallel version (MPI & OpenMP), running on      20 processor cores
     Number of MPI processes:                20
     Threads/MPI process:                     1

     MPI processes distributed on     1 nodes
     71457 MiB available memory on the printing compute node when the environment starts

     Reading input from mos2.bands.in

     Current dimensions of program PWSCF are:
     Max number of different atomic species (ntypx) = 10
     Max number of k-points (npk) =  40000
     Max angular momentum in pseudopotentials (lmaxx) =  4

     Atomic positions and unit cell read from directory:
     ./tmp/mos2.save/
     Atomic positions from file used, from input discarded

     Message from routine setup:
     using ibrav=0 with symmetry is DISCOURAGED, use correct ibrav instead

     R & G space division:  proc/nbgrp/npool/nimage =      20
     Subspace diagonalization in iterative solution of the eigenvalue problem:
     a serial algorithm will be used


     Parallelization info
     --------------------
     sticks:   dense  smooth     PW     G-vecs:    dense   smooth      PW
     Min         150      59     17                37712     9523    1427
     Max         151      60     18                37728     9544    1439
     Sum        3001    1189    349               754435   190631   28675

     Using Slab Decomposition



     bravais-lattice index     =            0
     lattice parameter (alat)  =       6.0137  a.u.
     unit-cell volume          =    1074.4427 (a.u.)^3
     number of atoms/cell      =            3
     number of atomic types    =            2
     number of electrons       =        26.00
     number of Kohn-Sham states=           17
     kinetic-energy cutoff     =     120.0000  Ry
     charge density cutoff     =    1200.0000  Ry
     Exchange-correlation= LDA
                           (   1   1   0   0   0   0   0)

     celldm(1)=   6.013746  celldm(2)=   0.000000  celldm(3)=   0.000000
     celldm(4)=   0.000000  celldm(5)=   0.000000  celldm(6)=   0.000000

     crystal axes: (cart. coord. in units of alat)
               a(1) = (   1.000000  -0.000000   0.000000 )  
               a(2) = (  -0.500000   0.866025   0.000000 )  
               a(3) = (   0.000000   0.000000   5.704496 )  

     reciprocal axes: (cart. coord. in units 2 pi/alat)
               b(1) = (  1.000000  0.577350 -0.000000 )  
               b(2) = (  0.000000  1.154701 -0.000000 )  
               b(3) = ( -0.000000 -0.000000  0.175300 )  


     PseudoPot. # 1 for Mo read from file:
     /opt/project/dorye_projects/brazil_kpm/lda_pp/Mo.UPF
     MD5 check sum: f2cb183f839b9eb3dc69b5e2ce0ded2e
     Pseudo is Ultrasoft + core correction, Zval = 14.0
     Generated using "atomic" code by A. Dal Corso  v.5.0.2 svn rev. 9415
     Using radial grid of 1229 points,  6 beta functions with: 
                l(1) =   0
                l(2) =   0
                l(3) =   1
                l(4) =   1
                l(5) =   2
                l(6) =   2
     Q(r) pseudized with 0 coefficients 


     PseudoPot. # 2 for S  read from file:
     /opt/project/dorye_projects/brazil_kpm/lda_pp/S.UPF
     MD5 check sum: fce4376d1d3ac8b10d990fc1f69cce3a
     Pseudo is Ultrasoft + core correction, Zval =  6.0
     Generated using "atomic" code by A. Dal Corso  v.5.0.2 svn rev. 9415
     Using radial grid of 1151 points,  4 beta functions with: 
                l(1) =   0
                l(2) =   0
                l(3) =   1
                l(4) =   1
     Q(r) pseudized with 0 coefficients 


     atomic species   valence    mass     pseudopotential
        Mo            14.00    95.95000     Mo( 1.00)
        S              6.00    32.06000     S ( 1.00)

      6 Sym. Ops. (no inversion) found


                                    s                        frac. trans.

      isym =  1     identity                                     

 cryst.   s( 1) = (     1          0          0      )
                  (     0          1          0      )
                  (     0          0          1      )

 cart.    s( 1) = (  1.0000000  0.0000000  0.0000000 )
                  (  0.0000000  1.0000000  0.0000000 )
                  (  0.0000000  0.0000000  1.0000000 )


      isym =  2     120 deg rotation - cryst. axis [0,0,1]       

 cryst.   s( 2) = (     0          1          0      )
                  (    -1         -1          0      )
                  (     0          0          1      )

 cart.    s( 2) = ( -0.5000000 -0.8660254  0.0000000 )
                  (  0.8660254 -0.5000000  0.0000000 )
                  (  0.0000000  0.0000000  1.0000000 )


      isym =  3     120 deg rotation - cryst. axis [0,0,-1]      

 cryst.   s( 3) = (    -1         -1          0      )
                  (     1          0          0      )
                  (     0          0          1      )

 cart.    s( 3) = ( -0.5000000  0.8660254  0.0000000 )
                  ( -0.8660254 -0.5000000  0.0000000 )
                  (  0.0000000  0.0000000  1.0000000 )


      isym =  4     inv. 180 deg rotation - cart. axis [1,0,0]   

 cryst.   s( 4) = (    -1          0          0      )
                  (     1          1          0      )
                  (     0          0          1      )

 cart.    s( 4) = ( -1.0000000 -0.0000000  0.0000000 )
                  (  0.0000000  1.0000000  0.0000000 )
                  (  0.0000000  0.0000000  1.0000000 )


      isym =  5     inv. 180 deg rotation - cryst. axis [0,1,0]  

 cryst.   s( 5) = (     1          1          0      )
                  (     0         -1          0      )
                  (     0          0          1      )

 cart.    s( 5) = (  0.5000000  0.8660254  0.0000000 )
                  (  0.8660254 -0.5000000  0.0000000 )
                  (  0.0000000  0.0000000  1.0000000 )


      isym =  6     inv. 180 deg rotation - cryst. axis [1,1,0]  

 cryst.   s( 6) = (     0         -1          0      )
                  (    -1          0          0      )
                  (     0          0          1      )

 cart.    s( 6) = (  0.5000000 -0.8660254  0.0000000 )
                  ( -0.8660254 -0.5000000  0.0000000 )
                  (  0.0000000  0.0000000  1.0000000 )


   Cartesian axes

     site n.     atom                  positions (alat units)
         1           Mo  tau(   1) = (  -0.0000000   0.5773503   0.4954659  )
         2           S   tau(   2) = (   0.5000000   0.2886751   0.0044724  )
         3           S   tau(   3) = (   0.5000000   0.2886751   0.9864392  )

   Crystallographic axes

     site n.     atom                  positions (cryst. coord.)
         1           Mo  tau(   1) = (  0.3333333  0.6666667  0.0868553  )
         2           S   tau(   2) = (  0.6666667  0.3333333  0.0007840  )
         3           S   tau(   3) = (  0.6666667  0.3333333  0.1729231  )

     number of k points=    61  Marzari-Vanderbilt smearing, width (Ry)=  0.0030
                       cart. coord. in units 2pi/alat
        k(    1) = (   0.0000000   0.0000000   0.0000000), wk =   0.0327869
        k(    2) = (   0.0250000   0.0144338   0.0000000), wk =   0.0327869
        k(    3) = (   0.0500000   0.0288675   0.0000000), wk =   0.0327869
        k(    4) = (   0.0750000   0.0433013   0.0000000), wk =   0.0327869
        k(    5) = (   0.1000000   0.0577350   0.0000000), wk =   0.0327869
        k(    6) = (   0.1250000   0.0721688   0.0000000), wk =   0.0327869
        k(    7) = (   0.1500000   0.0866025   0.0000000), wk =   0.0327869
        k(    8) = (   0.1750000   0.1010363   0.0000000), wk =   0.0327869
        k(    9) = (   0.2000000   0.1154701   0.0000000), wk =   0.0327869
        k(   10) = (   0.2250000   0.1299038   0.0000000), wk =   0.0327869
        k(   11) = (   0.2500000   0.1443376   0.0000000), wk =   0.0327869
        k(   12) = (   0.2750000   0.1587713   0.0000000), wk =   0.0327869
        k(   13) = (   0.3000000   0.1732051   0.0000000), wk =   0.0327869
        k(   14) = (   0.3250000   0.1876388   0.0000000), wk =   0.0327869
        k(   15) = (   0.3500000   0.2020726   0.0000000), wk =   0.0327869
        k(   16) = (   0.3750000   0.2165064   0.0000000), wk =   0.0327869
        k(   17) = (   0.4000000   0.2309401   0.0000000), wk =   0.0327869
        k(   18) = (   0.4250000   0.2453739   0.0000000), wk =   0.0327869
        k(   19) = (   0.4500000   0.2598076   0.0000000), wk =   0.0327869
        k(   20) = (   0.4750000   0.2742414   0.0000000), wk =   0.0327869
        k(   21) = (   0.5000000   0.2886751   0.0000000), wk =   0.0327869
        k(   22) = (   0.4916500   0.3030800   0.0000000), wk =   0.0327869
        k(   23) = (   0.4833000   0.3174849   0.0000000), wk =   0.0327869
        k(   24) = (   0.4749500   0.3318898   0.0000000), wk =   0.0327869
        k(   25) = (   0.4666000   0.3462947   0.0000000), wk =   0.0327869
        k(   26) = (   0.4582500   0.3606996   0.0000000), wk =   0.0327869
        k(   27) = (   0.4499000   0.3751045   0.0000000), wk =   0.0327869
        k(   28) = (   0.4415500   0.3895094   0.0000000), wk =   0.0327869
        k(   29) = (   0.4332000   0.4039142   0.0000000), wk =   0.0327869
        k(   30) = (   0.4248500   0.4183191   0.0000000), wk =   0.0327869
        k(   31) = (   0.4165000   0.4327240   0.0000000), wk =   0.0327869
        k(   32) = (   0.4081500   0.4471289   0.0000000), wk =   0.0327869
        k(   33) = (   0.3998000   0.4615338   0.0000000), wk =   0.0327869
        k(   34) = (   0.3914500   0.4759387   0.0000000), wk =   0.0327869
        k(   35) = (   0.3831000   0.4903436   0.0000000), wk =   0.0327869
        k(   36) = (   0.3747500   0.5047485   0.0000000), wk =   0.0327869
        k(   37) = (   0.3664000   0.5191534   0.0000000), wk =   0.0327869
        k(   38) = (   0.3580500   0.5335583   0.0000000), wk =   0.0327869
        k(   39) = (   0.3497000   0.5479631   0.0000000), wk =   0.0327869
        k(   40) = (   0.3413500   0.5623680   0.0000000), wk =   0.0327869
        k(   41) = (   0.3330000   0.5767729   0.0000000), wk =   0.0327869
        k(   42) = (   0.3163500   0.5479343   0.0000000), wk =   0.0327869
        k(   43) = (   0.2997000   0.5190956   0.0000000), wk =   0.0327869
        k(   44) = (   0.2830500   0.4902570   0.0000000), wk =   0.0327869
        k(   45) = (   0.2664000   0.4614183   0.0000000), wk =   0.0327869
        k(   46) = (   0.2497500   0.4325797   0.0000000), wk =   0.0327869
        k(   47) = (   0.2331000   0.4037410   0.0000000), wk =   0.0327869
        k(   48) = (   0.2164500   0.3749024   0.0000000), wk =   0.0327869
        k(   49) = (   0.1998000   0.3460638   0.0000000), wk =   0.0327869
        k(   50) = (   0.1831500   0.3172251   0.0000000), wk =   0.0327869
        k(   51) = (   0.1665000   0.2883865   0.0000000), wk =   0.0327869
        k(   52) = (   0.1498500   0.2595478   0.0000000), wk =   0.0327869
        k(   53) = (   0.1332000   0.2307092   0.0000000), wk =   0.0327869
        k(   54) = (   0.1165500   0.2018705   0.0000000), wk =   0.0327869
        k(   55) = (   0.0999000   0.1730319   0.0000000), wk =   0.0327869
        k(   56) = (   0.0832500   0.1441932   0.0000000), wk =   0.0327869
        k(   57) = (   0.0666000   0.1153546   0.0000000), wk =   0.0327869
        k(   58) = (   0.0499500   0.0865159   0.0000000), wk =   0.0327869
        k(   59) = (   0.0333000   0.0576773   0.0000000), wk =   0.0327869
        k(   60) = (   0.0166500   0.0288386   0.0000000), wk =   0.0327869
        k(   61) = (   0.0000000   0.0000000   0.0000000), wk =   0.0327869

                       cryst. coord.
        k(    1) = (   0.0000000   0.0000000   0.0000000), wk =   0.0327869
        k(    2) = (   0.0250000   0.0000000   0.0000000), wk =   0.0327869
        k(    3) = (   0.0500000   0.0000000   0.0000000), wk =   0.0327869
        k(    4) = (   0.0750000   0.0000000   0.0000000), wk =   0.0327869
        k(    5) = (   0.1000000   0.0000000   0.0000000), wk =   0.0327869
        k(    6) = (   0.1250000   0.0000000   0.0000000), wk =   0.0327869
        k(    7) = (   0.1500000   0.0000000   0.0000000), wk =   0.0327869
        k(    8) = (   0.1750000   0.0000000   0.0000000), wk =   0.0327869
        k(    9) = (   0.2000000   0.0000000   0.0000000), wk =   0.0327869
        k(   10) = (   0.2250000   0.0000000   0.0000000), wk =   0.0327869
        k(   11) = (   0.2500000   0.0000000   0.0000000), wk =   0.0327869
        k(   12) = (   0.2750000   0.0000000   0.0000000), wk =   0.0327869
        k(   13) = (   0.3000000   0.0000000   0.0000000), wk =   0.0327869
        k(   14) = (   0.3250000   0.0000000   0.0000000), wk =   0.0327869
        k(   15) = (   0.3500000   0.0000000   0.0000000), wk =   0.0327869
        k(   16) = (   0.3750000   0.0000000   0.0000000), wk =   0.0327869
        k(   17) = (   0.4000000   0.0000000   0.0000000), wk =   0.0327869
        k(   18) = (   0.4250000  -0.0000000   0.0000000), wk =   0.0327869
        k(   19) = (   0.4500000   0.0000000   0.0000000), wk =   0.0327869
        k(   20) = (   0.4750000   0.0000000   0.0000000), wk =   0.0327869
        k(   21) = (   0.5000000   0.0000000   0.0000000), wk =   0.0327869
        k(   22) = (   0.4916500   0.0166500   0.0000000), wk =   0.0327869
        k(   23) = (   0.4833000   0.0333000   0.0000000), wk =   0.0327869
        k(   24) = (   0.4749500   0.0499500   0.0000000), wk =   0.0327869
        k(   25) = (   0.4666000   0.0666000   0.0000000), wk =   0.0327869
        k(   26) = (   0.4582500   0.0832500   0.0000000), wk =   0.0327869
        k(   27) = (   0.4499000   0.0999000   0.0000000), wk =   0.0327869
        k(   28) = (   0.4415500   0.1165500   0.0000000), wk =   0.0327869
        k(   29) = (   0.4332000   0.1332000   0.0000000), wk =   0.0327869
        k(   30) = (   0.4248500   0.1498500   0.0000000), wk =   0.0327869
        k(   31) = (   0.4165000   0.1665000   0.0000000), wk =   0.0327869
        k(   32) = (   0.4081500   0.1831500   0.0000000), wk =   0.0327869
        k(   33) = (   0.3998000   0.1998000   0.0000000), wk =   0.0327869
        k(   34) = (   0.3914500   0.2164500   0.0000000), wk =   0.0327869
        k(   35) = (   0.3831000   0.2331000   0.0000000), wk =   0.0327869
        k(   36) = (   0.3747500   0.2497500   0.0000000), wk =   0.0327869
        k(   37) = (   0.3664000   0.2664000   0.0000000), wk =   0.0327869
        k(   38) = (   0.3580500   0.2830500   0.0000000), wk =   0.0327869
        k(   39) = (   0.3497000   0.2997000   0.0000000), wk =   0.0327869
        k(   40) = (   0.3413500   0.3163500   0.0000000), wk =   0.0327869
        k(   41) = (   0.3330000   0.3330000   0.0000000), wk =   0.0327869
        k(   42) = (   0.3163500   0.3163500   0.0000000), wk =   0.0327869
        k(   43) = (   0.2997000   0.2997000   0.0000000), wk =   0.0327869
        k(   44) = (   0.2830500   0.2830500   0.0000000), wk =   0.0327869
        k(   45) = (   0.2664000   0.2664000   0.0000000), wk =   0.0327869
        k(   46) = (   0.2497500   0.2497500   0.0000000), wk =   0.0327869
        k(   47) = (   0.2331000   0.2331000   0.0000000), wk =   0.0327869
        k(   48) = (   0.2164500   0.2164500   0.0000000), wk =   0.0327869
        k(   49) = (   0.1998000   0.1998000   0.0000000), wk =   0.0327869
        k(   50) = (   0.1831500   0.1831500   0.0000000), wk =   0.0327869
        k(   51) = (   0.1665000   0.1665000   0.0000000), wk =   0.0327869
        k(   52) = (   0.1498500   0.1498500   0.0000000), wk =   0.0327869
        k(   53) = (   0.1332000   0.1332000   0.0000000), wk =   0.0327869
        k(   54) = (   0.1165500   0.1165500   0.0000000), wk =   0.0327869
        k(   55) = (   0.0999000   0.0999000   0.0000000), wk =   0.0327869
        k(   56) = (   0.0832500   0.0832500   0.0000000), wk =   0.0327869
        k(   57) = (   0.0666000   0.0666000   0.0000000), wk =   0.0327869
        k(   58) = (   0.0499500   0.0499500   0.0000000), wk =   0.0327869
        k(   59) = (   0.0333000   0.0333000   0.0000000), wk =   0.0327869
        k(   60) = (   0.0166500   0.0166500   0.0000000), wk =   0.0327869
        k(   61) = (   0.0000000   0.0000000   0.0000000), wk =   0.0327869

     Dense  grid:   754435 G-vectors     FFT dimensions: (  72,  72, 384)

     Smooth grid:   190631 G-vectors     FFT dimensions: (  45,  45, 240)

     Dynamical RAM for                 wfc:       0.31 MB

     Dynamical RAM for     wfc (w. buffer):       0.31 MB

     Dynamical RAM for           str. fact:       1.15 MB

     Dynamical RAM for           local pot:       0.00 MB

     Dynamical RAM for          nlocal pot:       0.62 MB

     Dynamical RAM for                qrad:       5.56 MB

     Dynamical RAM for          rho,v,vnew:       4.10 MB

     Dynamical RAM for           G-vectors:       2.23 MB

     Dynamical RAM for          h,s,v(r/c):       0.05 MB

     Dynamical RAM for          <psi|beta>:       0.01 MB

     Dynamical RAM for                 psi:       0.62 MB

     Dynamical RAM for                hpsi:       0.62 MB

     Dynamical RAM for                spsi:       0.62 MB

     Dynamical RAM for      wfcinit/wfcrot:       0.77 MB

     Dynamical RAM for           addusdens:     108.23 MB

     Estimated static dynamical RAM per process >      19.65 MB

     Estimated max dynamical RAM per process >     127.88 MB

     Estimated total dynamical RAM >       2.50 GB

     The potential is recalculated from file :
     ./tmp/mos2.save/charge-density


     negative rho (up, down):  2.934E-05 0.000E+00
     Starting wfcs are   21 randomized atomic wfcs

     Band Structure Calculation
     Davidson diagonalization with overlap

     Computing kpt #:     1  of    61
     total cpu time spent up to now is        4.4 secs

     Computing kpt #:     2  of    61
     total cpu time spent up to now is        5.5 secs

     Computing kpt #:     3  of    61
     total cpu time spent up to now is        6.5 secs

     Computing kpt #:     4  of    61
     total cpu time spent up to now is        7.6 secs

     Computing kpt #:     5  of    61
     total cpu time spent up to now is        8.6 secs

     Computing kpt #:     6  of    61
     total cpu time spent up to now is        9.6 secs

     Computing kpt #:     7  of    61
     total cpu time spent up to now is       10.7 secs

     Computing kpt #:     8  of    61
     total cpu time spent up to now is       11.7 secs

     Computing kpt #:     9  of    61
     total cpu time spent up to now is       12.7 secs

     Computing kpt #:    10  of    61
     total cpu time spent up to now is       13.8 secs

     Computing kpt #:    11  of    61
     total cpu time spent up to now is       14.8 secs

     Computing kpt #:    12  of    61
     total cpu time spent up to now is       15.9 secs

     Computing kpt #:    13  of    61
     total cpu time spent up to now is       16.9 secs

     Computing kpt #:    14  of    61
     total cpu time spent up to now is       17.9 secs

     Computing kpt #:    15  of    61
     total cpu time spent up to now is       19.0 secs

     Computing kpt #:    16  of    61
     total cpu time spent up to now is       20.0 secs

     Computing kpt #:    17  of    61
     total cpu time spent up to now is       21.1 secs

     Computing kpt #:    18  of    61
     total cpu time spent up to now is       22.0 secs

     Computing kpt #:    19  of    61
     total cpu time spent up to now is       23.1 secs

     Computing kpt #:    20  of    61
     total cpu time spent up to now is       24.1 secs

     Computing kpt #:    21  of    61
     total cpu time spent up to now is       25.2 secs

     Computing kpt #:    22  of    61
     total cpu time spent up to now is       26.2 secs

     Computing kpt #:    23  of    61
     total cpu time spent up to now is       27.2 secs

     Computing kpt #:    24  of    61
     total cpu time spent up to now is       28.3 secs

     Computing kpt #:    25  of    61
     total cpu time spent up to now is       29.3 secs

     Computing kpt #:    26  of    61
     total cpu time spent up to now is       30.3 secs

     Computing kpt #:    27  of    61
     total cpu time spent up to now is       31.4 secs

     Computing kpt #:    28  of    61
     total cpu time spent up to now is       32.5 secs

     Computing kpt #:    29  of    61
     total cpu time spent up to now is       33.6 secs

     Computing kpt #:    30  of    61
     total cpu time spent up to now is       34.6 secs

     Computing kpt #:    31  of    61
     total cpu time spent up to now is       35.7 secs

     Computing kpt #:    32  of    61
     total cpu time spent up to now is       36.7 secs

     Computing kpt #:    33  of    61
     total cpu time spent up to now is       37.8 secs

     Computing kpt #:    34  of    61
     total cpu time spent up to now is       38.8 secs

     Computing kpt #:    35  of    61
     total cpu time spent up to now is       39.8 secs

     Computing kpt #:    36  of    61
     total cpu time spent up to now is       40.9 secs

     Computing kpt #:    37  of    61
     total cpu time spent up to now is       41.9 secs

     Computing kpt #:    38  of    61
     total cpu time spent up to now is       43.0 secs

     Computing kpt #:    39  of    61
     total cpu time spent up to now is       44.0 secs

     Computing kpt #:    40  of    61
     total cpu time spent up to now is       45.0 secs

     Computing kpt #:    41  of    61
     total cpu time spent up to now is       46.0 secs

     Computing kpt #:    42  of    61
     total cpu time spent up to now is       47.0 secs

     Computing kpt #:    43  of    61
     total cpu time spent up to now is       48.0 secs

     Computing kpt #:    44  of    61
     total cpu time spent up to now is       49.0 secs

     Computing kpt #:    45  of    61
     total cpu time spent up to now is       50.0 secs

     Computing kpt #:    46  of    61
     total cpu time spent up to now is       51.0 secs

     Computing kpt #:    47  of    61
     total cpu time spent up to now is       52.0 secs

     Computing kpt #:    48  of    61
     total cpu time spent up to now is       53.1 secs

     Computing kpt #:    49  of    61
     total cpu time spent up to now is       54.0 secs

     Computing kpt #:    50  of    61
     total cpu time spent up to now is       55.1 secs

     Computing kpt #:    51  of    61
     total cpu time spent up to now is       56.1 secs

     Computing kpt #:    52  of    61
     total cpu time spent up to now is       57.2 secs

     Computing kpt #:    53  of    61
     total cpu time spent up to now is       58.2 secs

     Computing kpt #:    54  of    61
     total cpu time spent up to now is       59.3 secs

     Computing kpt #:    55  of    61
     total cpu time spent up to now is       60.3 secs

     Computing kpt #:    56  of    61
     total cpu time spent up to now is       61.3 secs

     Computing kpt #:    57  of    61
     total cpu time spent up to now is       62.4 secs

     Computing kpt #:    58  of    61
     total cpu time spent up to now is       63.4 secs

     Computing kpt #:    59  of    61
     total cpu time spent up to now is       64.5 secs

     Computing kpt #:    60  of    61
     total cpu time spent up to now is       65.5 secs

     Computing kpt #:    61  of    61
     total cpu time spent up to now is       66.5 secs

     ethr =  3.85E-10,  avg # of iterations = 26.5

     total cpu time spent up to now is       66.5 secs

     End of band structure calculation

          k = 0.0000 0.0000 0.0000 ( 23951 PWs)   bands (ev):

   -61.4210 -35.6209 -35.4005 -35.4005 -14.7277 -13.4078  -6.3196  -3.3025
    -3.3025  -2.4542  -2.1775  -2.1775  -0.7144   2.0892   2.0892   2.3327
     2.3327

          k = 0.0250 0.0144 0.0000 ( 23929 PWs)   bands (ev):

   -61.4208 -35.6205 -35.4029 -35.4011 -14.7183 -13.4039  -6.3086  -3.3245
    -3.2925  -2.5405  -2.1933  -2.1042  -0.7181   2.0718   2.1063   2.3018
     2.3217

          k = 0.0500 0.0289 0.0000 ( 23919 PWs)   bands (ev):

   -61.4201 -35.6191 -35.4101 -35.4027 -14.6901 -13.3923  -6.2760  -3.3889
    -3.2627  -2.7028  -2.2394  -1.9820  -0.7301   2.0246   2.1562   2.2154
     2.2892

          k = 0.0750 0.0433 0.0000 ( 23901 PWs)   bands (ev):

   -61.4189 -35.6168 -35.4217 -35.4053 -14.6436 -13.3731  -6.2229  -3.4909
    -3.2136  -2.8844  -2.3124  -1.8710  -0.7528   1.9610   2.0894   2.2350
     2.2377

          k = 0.1000 0.0577 0.0000 ( 23902 PWs)   bands (ev):

   -61.4174 -35.6137 -35.4376 -35.4090 -14.5794 -13.3465  -6.1514  -3.6236
    -3.1461  -3.0741  -2.4077  -1.7870  -0.7901   1.8987   1.9434   2.1704
     2.3370

          k = 0.1250 0.0722 0.0000 ( 23928 PWs)   bands (ev):

   -61.4154 -35.6098 -35.4572 -35.4134 -14.4984 -13.3130  -6.0650  -3.7784
    -3.2682  -3.0616  -2.5197  -1.7382  -0.8465   1.7964   1.8554   2.0915
     2.4556

          k = 0.1500 0.0866 0.0000 ( 23920 PWs)   bands (ev):

   -61.4131 -35.6052 -35.4802 -35.4187 -14.4019 -13.2731  -5.9686  -3.9457
    -3.4650  -2.9617  -2.6433  -1.7281  -0.9259   1.6648   1.8448   2.0054
     2.5843

          k = 0.1750 0.1010 0.0000 ( 23910 PWs)   bands (ev):

   -61.4106 -35.6001 -35.5058 -35.4246 -14.2911 -13.2275  -5.8697  -4.1150
    -3.6635  -2.8487  -2.7734  -1.7553  -1.0294   1.5610   1.8737   1.9167
     2.7169

          k = 0.2000 0.1155 0.0000 ( 23896 PWs)   bands (ev):

   -61.4078 -35.5946 -35.5335 -35.4309 -14.1680 -13.1768  -5.7795  -4.2739
    -3.8628  -2.9060  -2.7250  -1.8136  -1.1536   1.4917   1.8294   1.9422
     2.8481

          k = 0.2250 0.1299 0.0000 ( 23882 PWs)   bands (ev):

   -61.4049 -35.5887 -35.5625 -35.4376 -14.0346 -13.1220  -5.7134  -4.4082
    -4.0619  -3.0373  -2.5938  -1.8940  -1.2897   1.4584   1.7477   2.0448
     2.9737

          k = 0.2500 0.1443 0.0000 ( 23890 PWs)   bands (ev):

   -61.4019 -35.5920 -35.5828 -35.4444 -13.8932 -13.0642  -5.6891  -4.5039
    -4.2592  -3.1645  -2.4584  -1.9866  -1.4244   1.4582   1.6747   2.1730
     3.0904

          k = 0.2750 0.1588 0.0000 ( 23860 PWs)   bands (ev):

   -61.3989 -35.6215 -35.5768 -35.4513 -13.7466 -13.0047  -5.7175  -4.5555
    -4.4526  -3.2852  -2.3228  -2.0827  -1.5423   1.4858   1.6132   2.3173
     3.1960

          k = 0.3000 0.1732 0.0000 ( 23902 PWs)   bands (ev):

   -61.3960 -35.6501 -35.5709 -35.4579 -13.5980 -12.9448  -5.7938  -4.6393
    -4.5741  -3.3973  -2.1907  -2.1756  -1.6285   1.5352   1.5653   2.4682
     3.2891

          k = 0.3250 0.1876 0.0000 ( 23886 PWs)   bands (ev):

   -61.3932 -35.6771 -35.5653 -35.4642 -13.4510 -12.8861  -5.9015  -4.8160
    -4.5806  -3.4993  -2.2610  -2.0663  -1.6724   1.5319   1.6007   2.6170
     3.3692

          k = 0.3500 0.2021 0.0000 ( 23882 PWs)   bands (ev):

   -61.3906 -35.7020 -35.5602 -35.4700 -13.3096 -12.8303  -6.0227  -4.9793
    -4.5924  -3.5900  -2.3359  -1.9530  -1.6701   1.5128   1.6771   2.7561
     3.4364

          k = 0.3750 0.2165 0.0000 ( 23872 PWs)   bands (ev):

   -61.3883 -35.7241 -35.5556 -35.4752 -13.1782 -12.7790  -6.1441  -5.1254
    -4.6164  -3.6682  -2.3992  -1.8539  -1.6269   1.5064   1.7595   2.8791
     3.4914

          k = 0.4000 0.2309 0.0000 ( 23846 PWs)   bands (ev):

   -61.3864 -35.7429 -35.5517 -35.4796 -13.0616 -12.7340  -6.2559  -5.2506
    -4.6505  -3.7332  -2.4504  -1.7714  -1.5558   1.5100   1.8428   2.9815
     3.5347

          k = 0.4250 0.2454 0.0000 ( 23824 PWs)   bands (ev):

   -61.3848 -35.7579 -35.5485 -35.4832 -12.9645 -12.6970  -6.3507  -5.3519
    -4.6879  -3.7843  -2.4896  -1.7066  -1.4741   1.5195   1.9213   3.0608
     3.5673

          k = 0.4500 0.2598 0.0000 ( 23810 PWs)   bands (ev):

   -61.3836 -35.7690 -35.5462 -35.4858 -12.8914 -12.6694  -6.4229  -5.4263
    -4.7209  -3.8212  -2.5171  -1.6603  -1.3998   1.5306   1.9873   3.1166
     3.5899

          k = 0.4750 0.2742 0.0000 ( 23800 PWs)   bands (ev):

   -61.3829 -35.7757 -35.5448 -35.4874 -12.8458 -12.6524  -6.4680  -5.4719
    -4.7433  -3.8434  -2.5335  -1.6326  -1.3482   1.5391   2.0323   3.1494
     3.6032

          k = 0.5000 0.2887 0.0000 ( 23768 PWs)   bands (ev):

   -61.3827 -35.7779 -35.5443 -35.4879 -12.8304 -12.6466  -6.4834  -5.4872
    -4.7512  -3.8508  -2.5389  -1.6233  -1.3298   1.5423   2.0484   3.1602
     3.6076

          k = 0.4917 0.3031 0.0000 ( 23776 PWs)   bands (ev):

   -61.3827 -35.7776 -35.5443 -35.4886 -12.8290 -12.6457  -6.4793  -5.4905
    -4.7497  -3.8517  -2.5379  -1.6578  -1.3100   1.5441   2.0497   3.1660
     3.5938

          k = 0.4833 0.3175 0.0000 ( 23792 PWs)   bands (ev):

   -61.3826 -35.7767 -35.5441 -35.4905 -12.8248 -12.6430  -6.4669  -5.5004
    -4.7453  -3.8541  -2.5352  -1.7433  -1.2675   1.5487   2.0540   3.1829
     3.5542

          k = 0.4750 0.3319 0.0000 ( 23796 PWs)   bands (ev):

   -61.3825 -35.7751 -35.5439 -35.4938 -12.8179 -12.6387  -6.4465  -5.5168
    -4.7379  -3.8574  -2.5314  -1.8584  -1.2223   1.5547   2.0623   3.2092
     3.4937

          k = 0.4666 0.3463 0.0000 ( 23784 PWs)   bands (ev):

   -61.3823 -35.7729 -35.5435 -35.4983 -12.8085 -12.6327  -6.4179  -5.5395
    -4.7280  -3.8606  -2.5272  -1.9935  -1.1814   1.5594   2.0762   3.2385
     3.4228

          k = 0.4583 0.3607 0.0000 ( 23784 PWs)   bands (ev):

   -61.3821 -35.7700 -35.5431 -35.5039 -12.7966 -12.6251  -6.3815  -5.5683
    -4.7155  -3.8626  -2.5237  -2.1438  -1.1460   1.5599   2.0974   3.2391
     3.3775

          k = 0.4499 0.3751 0.0000 ( 23800 PWs)   bands (ev):

   -61.3818 -35.7666 -35.5426 -35.5107 -12.7825 -12.6162  -6.3375  -5.6027
    -4.7010  -3.8624  -2.5219  -2.3063  -1.1153   1.5536   2.1275   3.1694
     3.4034

          k = 0.4416 0.3895 0.0000 ( 23812 PWs)   bands (ev):

   -61.3815 -35.7626 -35.5420 -35.5185 -12.7663 -12.6061  -6.2860  -5.6420
    -4.6848  -3.8589  -2.5229  -2.4785  -1.0880   1.5386   2.1671   3.0707
     3.4620

          k = 0.4332 0.4039 0.0000 ( 23814 PWs)   bands (ev):

   -61.3812 -35.7580 -35.5413 -35.5272 -12.7485 -12.5949  -6.2274  -5.6855
    -4.6673  -3.8515  -2.6579  -2.5276  -1.0623   1.5141   2.2157   2.9668
     3.5319

          k = 0.4249 0.4183 0.0000 ( 23838 PWs)   bands (ev):

   -61.3808 -35.7529 -35.5406 -35.5368 -12.7294 -12.5830  -6.1620  -5.7321
    -4.6491  -3.8396  -2.8421  -2.5368  -1.0368   1.4803   2.2721   2.8643
     3.6073

          k = 0.4165 0.4327 0.0000 ( 23830 PWs)   bands (ev):

   -61.3805 -35.7473 -35.5470 -35.5399 -12.7092 -12.5705  -6.0902  -5.7807
    -4.6309  -3.8232  -3.0288  -2.5508  -1.0101   1.4383   2.3345   2.7670
     3.6852

          k = 0.4082 0.4471 0.0000 ( 23816 PWs)   bands (ev):

   -61.3801 -35.7412 -35.5577 -35.5392 -12.6885 -12.5577  -6.0126  -5.8301
    -4.6135  -3.8022  -3.2154  -2.5699  -0.9813   1.3893   2.4011   2.6769
     3.7631

          k = 0.3998 0.4615 0.0000 ( 23812 PWs)   bands (ev):

   -61.3797 -35.7347 -35.5689 -35.5384 -12.6676 -12.5450  -5.9296  -5.8790
    -4.5979  -3.7769  -3.3993  -2.5940  -0.9497   1.3349   2.4699   2.5958
     3.8388

          k = 0.3915 0.4759 0.0000 ( 23806 PWs)   bands (ev):

   -61.3794 -35.7279 -35.5803 -35.5377 -12.6471 -12.5326  -5.9261  -5.8420
    -4.5857  -3.7481  -3.5772  -2.6227  -0.9153   1.2767   2.5247   2.5389
     3.9102

          k = 0.3831 0.4903 0.0000 ( 23800 PWs)   bands (ev):

   -61.3790 -35.7207 -35.5917 -35.5370 -12.6275 -12.5209  -5.9703  -5.7506
    -4.5793  -3.7452  -3.7167  -2.6551  -0.8784   1.2169   2.4640   2.6061
     3.9754

          k = 0.3748 0.5047 0.0000 ( 23796 PWs)   bands (ev):

   -61.3787 -35.7133 -35.6030 -35.5364 -12.6093 -12.5101  -6.0103  -5.6566
    -4.5822  -3.8974  -3.6837  -2.6899  -0.8402   1.1577   2.4141   2.6695
     4.0327

          k = 0.3664 0.5192 0.0000 ( 23794 PWs)   bands (ev):

   -61.3785 -35.7059 -35.6139 -35.5359 -12.5931 -12.5006  -6.0450  -5.5619
    -4.6002  -4.0258  -3.6509  -2.7251  -0.8024   1.1019   2.3748   2.7268
     4.0808

          k = 0.3581 0.5336 0.0000 ( 23802 PWs)   bands (ev):

   -61.3782 -35.6987 -35.6239 -35.5354 -12.5794 -12.4928  -6.0735  -5.4695
    -4.6382  -4.1213  -3.6204  -2.7584  -0.7675   1.0527   2.3457   2.7757
     4.1188

          k = 0.3497 0.5480 0.0000 ( 23806 PWs)   bands (ev):

   -61.3781 -35.6922 -35.6326 -35.5351 -12.5689 -12.4869  -6.0947  -5.3854
    -4.6936  -4.1802  -3.5949  -2.7866  -0.7385   1.0135   2.3262   2.8137
     4.1459

          k = 0.3414 0.5624 0.0000 ( 23810 PWs)   bands (ev):

   -61.3779 -35.6873 -35.6388 -35.5349 -12.5622 -12.4831  -6.1080  -5.3211
    -4.7482  -4.2084  -3.5775  -2.8060  -0.7188   0.9878   2.3152   2.8382
     4.1620

          k = 0.3330 0.5768 0.0000 ( 23784 PWs)   bands (ev):

   -61.3779 -35.6854 -35.6412 -35.5348 -12.5597 -12.4818  -6.1127  -5.2951
    -4.7729  -4.2161  -3.5710  -2.8133  -0.7115   0.9785   2.3117   2.8471
     4.1674

          k = 0.3164 0.5479 0.0000 ( 23810 PWs)   bands (ev):

   -61.3781 -35.6914 -35.6331 -35.5351 -12.5706 -12.4875  -6.0930  -5.3829
    -4.6799  -4.1950  -3.5978  -2.7820  -0.7429   1.0166   2.3226   2.8088
     4.1478

          k = 0.2997 0.5191 0.0000 ( 23806 PWs)   bands (ev):

   -61.3786 -35.7010 -35.6169 -35.5362 -12.6046 -12.5047  -6.0336  -5.5359
    -4.5074  -4.1376  -3.6666  -2.6972  -0.8298   1.1182   2.3462   2.6964
     4.0974

          k = 0.2831 0.4903 0.0000 ( 23832 PWs)   bands (ev):

   -61.3796 -35.7082 -35.5982 -35.5381 -12.6642 -12.5337  -5.9335  -5.6720
    -4.3635  -4.0207  -3.7552  -2.5776  -0.9522   1.2539   2.3689   2.5222
     4.0286

          k = 0.2664 0.4614 0.0000 ( 23830 PWs)   bands (ev):

   -61.3809 -35.7110 -35.5789 -35.5408 -12.7501 -12.5740  -5.7932  -5.7687
    -4.2920  -3.8445  -3.8299  -2.4398  -1.0865   1.3868   2.3131   2.3770
     3.9543

          k = 0.2498 0.4326 0.0000 ( 23782 PWs)   bands (ev):

   -61.3827 -35.7086 -35.5595 -35.5444 -12.8613 -12.6245  -5.8203  -5.6149
    -4.2725  -3.9216  -3.6021  -2.2953  -1.2137   1.4786   2.1070   2.3595
     3.8839

          k = 0.2331 0.4037 0.0000 ( 23809 PWs)   bands (ev):

   -61.3850 -35.7008 -35.5489 -35.5406 -12.9949 -12.6835  -5.8286  -5.4024
    -4.2881  -3.9779  -3.3660  -2.1522  -1.3220   1.4873   1.9553   2.3115
     3.8201

          k = 0.2165 0.3749 0.0000 ( 23829 PWs)   bands (ev):

   -61.3876 -35.6877 -35.5541 -35.5223 -13.1467 -12.7492  -5.7992  -5.1608
    -4.3323  -4.0073  -3.1366  -2.0166  -1.4066   1.4053   1.8836   2.2356
     3.7569

          k = 0.1998 0.3461 0.0000 ( 23863 PWs)   bands (ev):

   -61.3905 -35.6696 -35.5600 -35.5049 -13.3118 -12.8194  -5.7429  -4.8971
    -4.3964  -4.0042  -2.9266  -1.8936  -1.4663   1.3013   1.8474   2.1406
     3.6837

          k = 0.1832 0.3172 0.0000 ( 23851 PWs)   bands (ev):

   -61.3937 -35.6471 -35.5664 -35.4886 -13.4849 -12.8923  -5.6762  -4.6223
    -4.4640  -3.9619  -2.7544  -1.7874  -1.4962   1.2332   1.8138   2.0380
     3.5901

          k = 0.1665 0.2884 0.0000 ( 23871 PWs)   bands (ev):

   -61.3971 -35.6210 -35.5733 -35.4735 -13.6606 -12.9657  -5.6238  -4.5079
    -4.3543  -3.8685  -2.6458  -1.7011  -1.4817   1.2200   1.7820   1.9386
     3.4700

          k = 0.1499 0.2595 0.0000 ( 23871 PWs)   bands (ev):

   -61.4006 -35.5922 -35.5803 -35.4597 -13.8342 -13.0379  -5.6145  -4.4969
    -4.1194  -3.7058  -2.6201  -1.6374  -1.4091   1.2583   1.7644   1.8525
     3.3231

          k = 0.1332 0.2307 0.0000 ( 23895 PWs)   bands (ev):

   -61.4042 -35.5873 -35.5618 -35.4473 -14.0012 -13.1072  -5.6622  -4.4147
    -3.9264  -3.4752  -2.6691  -1.5981  -1.2879   1.3342   1.7754   1.7878
     3.1536

          k = 0.1166 0.2019 0.0000 ( 23921 PWs)   bands (ev):

   -61.4076 -35.5941 -35.5311 -35.4363 -14.1576 -13.1719  -5.7549  -4.2726
    -3.7503  -3.2137  -2.7645  -1.5849  -1.1468   1.4340   1.7515   1.8244
     2.9694

          k = 0.0999 0.1730 0.0000 ( 23925 PWs)   bands (ev):

   -61.4108 -35.6005 -35.5012 -35.4268 -14.3000 -13.2309  -5.8702  -4.0944
    -3.5697  -2.9559  -2.8790  -1.5989  -1.0128   1.5533   1.7482   1.9079
     2.7802

          k = 0.0833 0.1442 0.0000 ( 23941 PWs)   bands (ev):

   -61.4137 -35.6063 -35.4733 -35.4187 -14.4255 -13.2828  -5.9892  -3.9024
    -3.3777  -2.9944  -2.7225  -1.6415  -0.9024   1.6946   1.7795   2.0102
     2.5964

          k = 0.0666 0.1154 0.0000 ( 23943 PWs)   bands (ev):

   -61.4162 -35.6114 -35.4487 -35.4122 -14.5316 -13.3267  -6.0993  -3.7149
    -3.1748  -3.0989  -2.5256  -1.7136  -0.8214   1.8411   1.8564   2.1137
     2.4287

          k = 0.0500 0.0865 0.0000 ( 23883 PWs)   bands (ev):

   -61.4183 -35.6154 -35.4283 -35.4071 -14.6162 -13.3617  -6.1920  -3.5481
    -3.1855  -2.9652  -2.3717  -1.8150  -0.7678   1.9221   2.0260   2.2047
     2.2868

          k = 0.0333 0.0577 0.0000 ( 23921 PWs)   bands (ev):

   -61.4198 -35.6185 -35.4131 -35.4034 -14.6777 -13.3872  -6.2618  -3.4164
    -3.2498  -2.7562  -2.2629  -1.9429  -0.7358   2.0043   2.1792   2.1807
     2.2745

          k = 0.0167 0.0288 0.0000 ( 23927 PWs)   bands (ev):

   -61.4207 -35.6203 -35.4037 -35.4013 -14.7151 -13.4027  -6.3050  -3.3317
    -3.2892  -2.5630  -2.1987  -2.0858  -0.7194   2.0662   2.1120   2.2919
     2.3180

          k = 0.0000 0.0000 0.0000 ( 23951 PWs)   bands (ev):

   -61.4210 -35.6209 -35.4005 -35.4005 -14.7277 -13.4078  -6.3196  -3.3025
    -3.3025  -2.4542  -2.1775  -2.1775  -0.7144   2.0892   2.0892   2.3327
     2.3327

     Writing all to output data dir ./tmp/mos2.save/

     init_run     :      2.94s CPU      3.17s WALL (       1 calls)
     electrons    :     62.64s CPU     63.01s WALL (       1 calls)

     Called by init_run:
     wfcinit      :      0.00s CPU      0.00s WALL (       1 calls)
     wfcinit:atom :      0.02s CPU      0.02s WALL (      61 calls)
     wfcinit:wfcr :      2.73s CPU      2.76s WALL (      61 calls)
     potinit      :      0.31s CPU      0.33s WALL (       1 calls)
     hinit0       :      1.95s CPU      1.95s WALL (       1 calls)

     Called by electrons:
     c_bands      :     62.64s CPU     63.00s WALL (       1 calls)
     v_of_rho     :      0.03s CPU      0.03s WALL (       1 calls)
     v_h          :      0.01s CPU      0.01s WALL (       1 calls)
     v_xc         :      0.01s CPU      0.01s WALL (       1 calls)
     newd         :      0.41s CPU      0.57s WALL (       1 calls)

     Called by c_bands:
     init_us_2    :      0.02s CPU      0.03s WALL (      61 calls)
     init_us_2:cp :      0.02s CPU      0.03s WALL (      61 calls)
     cegterg      :     59.64s CPU     59.93s WALL (     122 calls)

     Called by sum_band:

     Called by *egterg:
     cdiaghg      :      0.72s CPU      0.73s WALL (    1678 calls)
     cegterg:over :      3.55s CPU      3.57s WALL (    1617 calls)
     cegterg:upda :      0.38s CPU      0.38s WALL (    1617 calls)
     cegterg:last :      1.44s CPU      1.44s WALL (    1427 calls)
     h_psi        :     52.48s CPU     52.77s WALL (    1800 calls)
     s_psi        :      0.28s CPU      0.29s WALL (    1800 calls)
     g_psi        :      0.13s CPU      0.13s WALL (    1617 calls)

     Called by h_psi:
     h_psi:calbec :      2.80s CPU      2.83s WALL (    1800 calls)
     vloc_psi     :     48.94s CPU     49.20s WALL (    1800 calls)
     add_vuspsi   :      0.59s CPU      0.60s WALL (    1800 calls)

     General routines
     calbec       :      2.79s CPU      2.82s WALL (    1800 calls)
     fft          :      0.72s CPU      0.72s WALL (       6 calls)
     ffts         :      0.25s CPU      0.25s WALL (       1 calls)
     fftw         :     42.60s CPU     42.82s WALL (   51952 calls)
     interpolate  :      0.25s CPU      0.26s WALL (       1 calls)
     davcio       :      0.05s CPU      0.07s WALL (     122 calls)

     Parallel routines

     PWSCF        :   1m 6.84s CPU   1m 8.10s WALL


   This run was terminated on:  13:28: 0  19Jun2025            

=------------------------------------------------------------------------------=
   JOB DONE.
=------------------------------------------------------------------------------=
