
     Program PROJWFC v.7.2 starts on 19Jun2025 at 15:52:28 

     This program is part of the open-source Quantum ESPRESSO suite
     for quantum simulation of materials; please cite
         "P. Giannozzi et al., J. Phys.:Condens. Matter 21 395502 (2009);
         "P. Giannozzi et al., J. Phys.:Condens. Matter 29 465901 (2017);
         "P. Giannozzi et al., J. Chem. Phys. 152 154105 (2020);
          URL http://www.quantum-espresso.org", 
     in publications or presentations arising from this work. More details at
     http://www.quantum-espresso.org/quote

     Parallel version (MPI & OpenMP), running on      20 processor cores
     Number of MPI processes:                20
     Threads/MPI process:                     1

     MPI processes distributed on     1 nodes
     R & G space division:  proc/nbgrp/npool/nimage =      20
     62480 MiB available memory on the printing compute node when the environment starts


     Reading xml data from directory:

     ./tmp/mos2.save/

     IMPORTANT: XC functional enforced from input :
     Exchange-correlation= PZ
                           (   1   1   0   0   0   0   0)
     Any further DFT definition will be discarded
     Please, verify this is what you really want


     Parallelization info
     --------------------
     sticks:   dense  smooth     PW     G-vecs:    dense   smooth      PW
     Min         150      59     18                37712     9523    1548
     Max         151      60     19                37728     9544    1563
     Sum        3001    1189    361               754435   190631   31031

     Using Slab Decomposition


     negative rho (up, down):  2.934E-05 0.000E+00

     Gaussian broadening (read from input): ngauss,degauss=   0    0.001000


     Calling projwave .... 
     Subspace diagonalization in iterative solution of the eigenvalue problem:
     one sub-group per band group will be used
     ELPA distributed-memory algorithm (size of sub-group:  4*  4 procs)

     linear algebra parallelized on  16 procs

  Problem Sizes 
  natomwfc =           21
  nx       =            6
  nbnd     =           17
  nkstot   =          110
  npwx     =         1238
  nkb      =           34


     Atomic states used for projection
     (read from pseudopotential files):

     state #   1: atom   1 (Mo ), wfc  1 (l=0 m= 1)
     state #   2: atom   1 (Mo ), wfc  2 (l=0 m= 1)
     state #   3: atom   1 (Mo ), wfc  3 (l=1 m= 1)
     state #   4: atom   1 (Mo ), wfc  3 (l=1 m= 2)
     state #   5: atom   1 (Mo ), wfc  3 (l=1 m= 3)
     state #   6: atom   1 (Mo ), wfc  4 (l=1 m= 1)
     state #   7: atom   1 (Mo ), wfc  4 (l=1 m= 2)
     state #   8: atom   1 (Mo ), wfc  4 (l=1 m= 3)
     state #   9: atom   1 (Mo ), wfc  5 (l=2 m= 1)
     state #  10: atom   1 (Mo ), wfc  5 (l=2 m= 2)
     state #  11: atom   1 (Mo ), wfc  5 (l=2 m= 3)
     state #  12: atom   1 (Mo ), wfc  5 (l=2 m= 4)
     state #  13: atom   1 (Mo ), wfc  5 (l=2 m= 5)
     state #  14: atom   2 (S  ), wfc  1 (l=0 m= 1)
     state #  15: atom   2 (S  ), wfc  2 (l=1 m= 1)
     state #  16: atom   2 (S  ), wfc  2 (l=1 m= 2)
     state #  17: atom   2 (S  ), wfc  2 (l=1 m= 3)
     state #  18: atom   3 (S  ), wfc  1 (l=0 m= 1)
     state #  19: atom   3 (S  ), wfc  2 (l=1 m= 1)
     state #  20: atom   3 (S  ), wfc  2 (l=1 m= 2)
     state #  21: atom   3 (S  ), wfc  2 (l=1 m= 3)

 k =   0.0250000000  0.0433012702 -0.0876501565
==== e(   1) =   -61.42030 eV ==== 
     psi = 0.951*[#   1]+0.013*[#   2]+0.009*[#  15]+0.009*[#  19]+0.006*[#   7]
          +0.006*[#   8]+0.003*[#   9]+0.001*[#  14]+0.001*[#  18]
    |psi|^2 = 1.000
==== e(   2) =   -35.61952 eV ==== 
     psi = 0.972*[#   3]+0.009*[#   6]+0.004*[#  14]+0.004*[#  15]+0.004*[#  18]
          +0.004*[#  19]
    |psi|^2 = 1.000
==== e(   3) =   -35.40768 eV ==== 
     psi = 0.484*[#   4]+0.484*[#   5]+0.013*[#   7]+0.013*[#   8]+0.002*[#   2]
          
    |psi|^2 = 1.000
==== e(   4) =   -35.40217 eV ==== 
     psi = 0.483*[#   4]+0.483*[#   5]+0.016*[#   7]+0.016*[#   8]
    |psi|^2 = 1.000
==== e(   5) =   -14.69946 eV ==== 
     psi = 0.378*[#   2]+0.281*[#  14]+0.282*[#  18]+0.020*[#   1]+0.011*[#   7]
          +0.011*[#   8]+0.007*[#  15]+0.007*[#  19]+0.001*[#   9]
    |psi|^2 = 0.999
==== e(   6) =   -13.39617 eV ==== 
     psi = 0.366*[#   6]+0.304*[#  14]+0.304*[#  18]+0.019*[#   3]+0.001*[#  10]
          +0.001*[#  11]
    |psi|^2 = 0.998
==== e(   7) =    -6.28678 eV ==== 
     psi = 0.334*[#   9]+0.266*[#  15]+0.266*[#  19]+0.034*[#  14]+0.034*[#  18]
          +0.029*[#   2]+0.020*[#   1]
    |psi|^2 = 0.986
==== e(   8) =    -3.36766 eV ==== 
     psi = 0.330*[#  12]+0.330*[#  13]+0.080*[#  16]+0.080*[#  17]+0.080*[#  20]
          +0.080*[#  21]+0.005*[#   2]+0.002*[#  14]+0.002*[#  18]+0.001*[#   7]
          +0.001*[#   8]
    |psi|^2 = 0.991
==== e(   9) =    -3.27266 eV ==== 
     psi = 0.333*[#  12]+0.333*[#  13]+0.080*[#  16]+0.080*[#  17]+0.080*[#  20]
          +0.080*[#  21]+0.001*[#   7]+0.001*[#   8]
    |psi|^2 = 0.992
==== e(  10) =    -2.65618 eV ==== 
     psi = 0.315*[#  15]+0.315*[#  19]+0.107*[#  10]+0.107*[#  11]+0.030*[#  16]
          +0.030*[#  17]+0.030*[#  20]+0.030*[#  21]+0.022*[#   6]+0.004*[#   3]
          
    |psi|^2 = 0.994
==== e(  11) =    -2.22545 eV ==== 
     psi = 0.287*[#  10]+0.287*[#  11]+0.104*[#  16]+0.104*[#  17]+0.104*[#  20]
          +0.104*[#  21]
    |psi|^2 = 0.989
==== e(  12) =    -2.01378 eV ==== 
     psi = 0.172*[#  10]+0.172*[#  11]+0.165*[#  15]+0.165*[#  19]+0.077*[#  16]
          +0.077*[#  17]+0.077*[#  20]+0.077*[#  21]+0.003*[#   3]+0.002*[#   6]
          
    |psi|^2 = 0.988
==== e(  13) =    -0.72596 eV ==== 
     psi = 0.597*[#   9]+0.174*[#  15]+0.175*[#  19]+0.007*[#  14]+0.007*[#  18]
          +0.002*[#   7]+0.002*[#   8]+0.002*[#  12]+0.002*[#  13]
    |psi|^2 = 0.972
==== e(  14) =     2.03901 eV ==== 
     psi = 0.206*[#  10]+0.206*[#  11]+0.136*[#  16]+0.136*[#  17]+0.136*[#  20]
          +0.136*[#  21]+0.006*[#  14]+0.006*[#  18]+0.003*[#   6]
    |psi|^2 = 0.971
==== e(  15) =     2.14035 eV ==== 
     psi = 0.200*[#  10]+0.200*[#  11]+0.143*[#  16]+0.143*[#  17]+0.143*[#  20]
          +0.143*[#  21]
    |psi|^2 = 0.972
==== e(  16) =     2.24344 eV ==== 
     psi = 0.160*[#  20]+0.160*[#  21]+0.159*[#  12]+0.159*[#  13]+0.160*[#  16]
          +0.160*[#  17]+0.005*[#   2]+0.004*[#   7]+0.004*[#   8]+0.003*[#  15]
          +0.003*[#  19]+0.003*[#  14]+0.003*[#  18]+0.002*[#   9]
    |psi|^2 = 0.986
==== e(  17) =     2.29964 eV ==== 
     psi = 0.164*[#  20]+0.164*[#  21]+0.164*[#  16]+0.164*[#  17]+0.159*[#  12]
          +0.159*[#  13]+0.007*[#   7]+0.007*[#   8]
    |psi|^2 = 0.990

 k =   0.0250000000  0.1010362972 -0.0876501565
==== e(   1) =   -61.41802 eV ==== 
     psi = 0.933*[#   1]+0.020*[#   7]+0.020*[#   8]+0.009*[#  15]+0.009*[#  19]
          +0.005*[#   2]+0.002*[#   9]
    |psi|^2 = 1.000
==== e(   2) =   -35.61498 eV ==== 
     psi = 0.973*[#   3]+0.008*[#   6]+0.004*[#  14]+0.004*[#  18]+0.004*[#  15]
          +0.004*[#  19]
    |psi|^2 = 1.000
==== e(   3) =   -35.43074 eV ==== 
     psi = 0.487*[#   4]+0.487*[#   5]+0.007*[#   7]+0.007*[#   8]+0.007*[#   2]
          
    |psi|^2 = 1.000
==== e(   4) =   -35.40751 eV ==== 
     psi = 0.483*[#   4]+0.483*[#   5]+0.015*[#   7]+0.015*[#   8]
    |psi|^2 = 1.000
==== e(   5) =   -14.60678 eV ==== 
     psi = 0.325*[#   2]+0.276*[#  14]+0.276*[#  18]+0.039*[#   7]+0.039*[#   8]
          +0.021*[#   1]+0.006*[#  15]+0.006*[#  19]+0.001*[#   9]+0.001*[#  12]
          +0.001*[#  13]+0.001*[#  16]+0.001*[#  17]+0.001*[#  20]+0.001*[#  21]
          
    |psi|^2 = 0.999
==== e(   6) =   -13.35783 eV ==== 
     psi = 0.347*[#   6]+0.309*[#  14]+0.309*[#  18]+0.018*[#   3]+0.006*[#  10]
          +0.006*[#  11]
    |psi|^2 = 0.998
==== e(   7) =    -6.18157 eV ==== 
     psi = 0.324*[#   9]+0.268*[#  15]+0.268*[#  19]+0.032*[#  14]+0.032*[#  18]
          +0.027*[#   2]+0.019*[#   1]+0.004*[#  12]+0.004*[#  13]+0.001*[#  16]
          +0.001*[#  17]+0.001*[#  20]+0.001*[#  21]+0.001*[#   7]+0.001*[#   8]
          
    |psi|^2 = 0.986
==== e(   8) =    -3.56779 eV ==== 
     psi = 0.309*[#  12]+0.309*[#  13]+0.082*[#  16]+0.082*[#  17]+0.082*[#  20]
          +0.082*[#  21]+0.019*[#   2]+0.007*[#  14]+0.007*[#  18]+0.002*[#   7]
          +0.002*[#   8]+0.001*[#  15]+0.001*[#  19]+0.001*[#   1]+0.001*[#   9]
          
    |psi|^2 = 0.991
==== e(   9) =    -3.17525 eV ==== 
     psi = 0.323*[#  12]+0.323*[#  13]+0.084*[#  16]+0.084*[#  17]+0.084*[#  20]
          +0.084*[#  21]+0.003*[#   7]+0.003*[#   8]
    |psi|^2 = 0.991
==== e(  10) =    -2.99557 eV ==== 
     psi = 0.232*[#  15]+0.232*[#  19]+0.156*[#  10]+0.156*[#  11]+0.046*[#  16]
          +0.046*[#  17]+0.046*[#  20]+0.046*[#  21]+0.028*[#   6]+0.002*[#   3]
          
    |psi|^2 = 0.993
==== e(  11) =    -2.37705 eV ==== 
     psi = 0.282*[#  10]+0.282*[#  11]+0.106*[#  16]+0.106*[#  17]+0.106*[#  20]
          +0.106*[#  21]
    |psi|^2 = 0.989
==== e(  12) =    -1.80926 eV ==== 
     psi = 0.243*[#  15]+0.243*[#  19]+0.095*[#  10]+0.095*[#  11]+0.076*[#  16]
          +0.076*[#  17]+0.076*[#  20]+0.076*[#  21]+0.006*[#   3]+0.001*[#   6]
          
    |psi|^2 = 0.986
==== e(  13) =    -0.77328 eV ==== 
     psi = 0.589*[#   9]+0.161*[#  15]+0.161*[#  19]+0.009*[#  12]+0.009*[#  13]
          +0.008*[#  14]+0.008*[#  18]+0.007*[#   7]+0.007*[#   8]+0.004*[#  16]
          +0.004*[#  17]+0.004*[#  20]+0.004*[#  21]
    |psi|^2 = 0.977
==== e(  14) =     1.91720 eV ==== 
     psi = 0.227*[#  10]+0.227*[#  11]+0.114*[#  16]+0.114*[#  17]+0.113*[#  20]
          +0.113*[#  21]+0.021*[#  14]+0.021*[#  18]+0.012*[#   6]+0.005*[#  15]
          +0.004*[#  19]
    |psi|^2 = 0.970
==== e(  15) =     2.00336 eV ==== 
     psi = 0.166*[#  12]+0.166*[#  13]+0.143*[#  20]+0.143*[#  21]+0.143*[#  16]
          +0.143*[#  17]+0.014*[#   9]+0.013*[#  15]+0.013*[#  19]+0.010*[#   2]
          +0.009*[#  14]+0.009*[#  18]+0.001*[#   7]+0.001*[#   8]
    |psi|^2 = 0.975
==== e(  16) =     2.19669 eV ==== 
     psi = 0.168*[#  12]+0.168*[#  13]+0.159*[#  16]+0.159*[#  17]+0.159*[#  20]
          +0.159*[#  21]+0.008*[#   7]+0.008*[#   8]
    |psi|^2 = 0.988
==== e(  17) =     2.29823 eV ==== 
     psi = 0.205*[#  10]+0.205*[#  11]+0.141*[#  20]+0.141*[#  21]+0.141*[#  16]
          +0.141*[#  17]
    |psi|^2 = 0.974

 k =   0.0250000000  0.1587713241 -0.0876501565
==== e(   1) =   -61.41416 eV ==== 
     psi = 0.914*[#   1]+0.033*[#   7]+0.033*[#   8]+0.008*[#  15]+0.008*[#  19]
          +0.001*[#   9]
    |psi|^2 = 1.000
==== e(   2) =   -35.60726 eV ==== 
     psi = 0.975*[#   3]+0.006*[#   6]+0.004*[#  14]+0.004*[#  18]+0.004*[#  15]
          +0.004*[#  19]
    |psi|^2 = 1.000
==== e(   3) =   -35.46968 eV ==== 
     psi = 0.489*[#   4]+0.489*[#   5]+0.010*[#   2]+0.002*[#   7]+0.002*[#   8]
          +0.001*[#  15]+0.001*[#  19]
    |psi|^2 = 1.000
==== e(   4) =   -35.41656 eV ==== 
     psi = 0.484*[#   4]+0.484*[#   5]+0.014*[#   7]+0.014*[#   8]
    |psi|^2 = 1.000
==== e(   5) =   -14.44541 eV ==== 
     psi = 0.271*[#  14]+0.271*[#  18]+0.260*[#   2]+0.072*[#   7]+0.072*[#   8]
          +0.022*[#   1]+0.006*[#  15]+0.006*[#  19]+0.003*[#  12]+0.003*[#  13]
          +0.002*[#   9]+0.002*[#  16]+0.002*[#  17]+0.002*[#  20]+0.002*[#  21]
          +0.001*[#   4]+0.001*[#   5]
    |psi|^2 = 0.999
==== e(   6) =   -13.29111 eV ==== 
     psi = 0.317*[#  14]+0.317*[#  18]+0.313*[#   6]+0.016*[#   3]+0.015*[#  10]
          +0.015*[#  11]+0.001*[#  16]+0.001*[#  17]+0.001*[#  20]+0.001*[#  21]
          
    |psi|^2 = 0.998
==== e(   7) =    -6.01067 eV ==== 
     psi = 0.303*[#   9]+0.269*[#  15]+0.269*[#  19]+0.029*[#  14]+0.029*[#  18]
          +0.022*[#   2]+0.015*[#   1]+0.013*[#  12]+0.013*[#  13]+0.004*[#  16]
          +0.004*[#  17]+0.004*[#  20]+0.004*[#  21]+0.002*[#   4]+0.002*[#   5]
          +0.002*[#   7]+0.002*[#   8]
    |psi|^2 = 0.986
==== e(   8) =    -3.87182 eV ==== 
     psi = 0.272*[#  12]+0.272*[#  13]+0.086*[#  16]+0.086*[#  17]+0.086*[#  20]
          +0.086*[#  21]+0.039*[#   2]+0.016*[#  14]+0.016*[#  18]+0.006*[#  15]
          +0.006*[#  19]+0.005*[#   9]+0.005*[#   7]+0.005*[#   8]+0.003*[#   1]
          
    |psi|^2 = 0.991
==== e(   9) =    -3.37275 eV ==== 
     psi = 0.178*[#  15]+0.178*[#  19]+0.175*[#  10]+0.175*[#  11]+0.062*[#  16]
          +0.062*[#  17]+0.062*[#  20]+0.062*[#  21]+0.038*[#   6]
    |psi|^2 = 0.993
==== e(  10) =    -3.00804 eV ==== 
     psi = 0.305*[#  12]+0.305*[#  13]+0.092*[#  20]+0.092*[#  21]+0.091*[#  16]
          +0.091*[#  17]+0.007*[#   7]+0.007*[#   8]
    |psi|^2 = 0.991
==== e(  11) =    -2.60898 eV ==== 
     psi = 0.275*[#  10]+0.275*[#  11]+0.109*[#  16]+0.109*[#  17]+0.108*[#  20]
          +0.108*[#  21]+0.002*[#  15]+0.002*[#  19]
    |psi|^2 = 0.990
==== e(  12) =    -1.71124 eV ==== 
     psi = 0.282*[#  15]+0.282*[#  19]+0.082*[#  16]+0.082*[#  17]+0.082*[#  20]
          +0.082*[#  21]+0.040*[#  10]+0.040*[#  11]+0.007*[#   3]+0.002*[#  14]
          +0.002*[#  18]
    |psi|^2 = 0.985
==== e(  13) =    -0.88812 eV ==== 
     psi = 0.567*[#   9]+0.137*[#  15]+0.137*[#  19]+0.029*[#  12]+0.029*[#  13]
          +0.011*[#  16]+0.011*[#  17]+0.011*[#  20]+0.011*[#  21]+0.010*[#  14]
          +0.010*[#  18]+0.009*[#   7]+0.009*[#   8]+0.004*[#   2]
    |psi|^2 = 0.984
==== e(  14) =     1.71942 eV ==== 
     psi = 0.168*[#  12]+0.168*[#  13]+0.121*[#  16]+0.121*[#  17]+0.121*[#  20]
          +0.121*[#  21]+0.048*[#   9]+0.030*[#  15]+0.030*[#  19]+0.012*[#  14]
          +0.012*[#  18]+0.008*[#   2]
    |psi|^2 = 0.963
==== e(  15) =     1.83276 eV ==== 
     psi = 0.253*[#  10]+0.253*[#  11]+0.083*[#  20]+0.083*[#  21]+0.083*[#  16]
          +0.083*[#  17]+0.038*[#  14]+0.038*[#  18]+0.019*[#   6]+0.017*[#  15]
          +0.017*[#  19]
    |psi|^2 = 0.968
==== e(  16) =     2.04023 eV ==== 
     psi = 0.184*[#  12]+0.184*[#  13]+0.149*[#  16]+0.149*[#  17]+0.149*[#  20]
          +0.149*[#  21]+0.008*[#   7]+0.008*[#   8]+0.002*[#   9]+0.001*[#   2]
          
    |psi|^2 = 0.986
==== e(  17) =     2.53605 eV ==== 
     psi = 0.211*[#  10]+0.211*[#  11]+0.138*[#  16]+0.138*[#  17]+0.138*[#  20]
          +0.138*[#  21]+0.001*[#  15]+0.001*[#  19]
    |psi|^2 = 0.977

 k =   0.0250000000  0.2165063511 -0.0876501565
==== e(   1) =   -61.40907 eV ==== 
     psi = 0.902*[#   1]+0.040*[#   7]+0.040*[#   8]+0.006*[#  15]+0.006*[#  19]
          
    |psi|^2 = 1.000
==== e(   2) =   -35.59711 eV ==== 
     psi = 0.977*[#   3]+0.004*[#  14]+0.004*[#  18]+0.003*[#   6]+0.003*[#  15]
          +0.003*[#  19]+0.001*[#  16]+0.001*[#  17]+0.001*[#  20]+0.001*[#  21]
          
    |psi|^2 = 1.000
==== e(   3) =   -35.52044 eV ==== 
     psi = 0.489*[#   4]+0.489*[#   5]+0.011*[#   2]+0.002*[#  15]+0.002*[#  19]
          +0.001*[#   9]+0.001*[#  14]+0.001*[#  18]
    |psi|^2 = 1.000
==== e(   4) =   -35.42842 eV ==== 
     psi = 0.485*[#   4]+0.485*[#   5]+0.013*[#   7]+0.013*[#   8]+0.001*[#  16]
          +0.001*[#  17]+0.001*[#  20]+0.001*[#  21]
    |psi|^2 = 1.000
==== e(   5) =   -14.22481 eV ==== 
     psi = 0.271*[#  18]+0.271*[#  14]+0.200*[#   2]+0.098*[#   7]+0.098*[#   8]
          +0.022*[#   1]+0.005*[#  15]+0.005*[#  19]+0.005*[#  12]+0.005*[#  13]
          +0.003*[#   4]+0.003*[#   5]+0.003*[#  16]+0.003*[#  17]+0.003*[#  20]
          +0.003*[#  21]+0.002*[#   9]
    |psi|^2 = 0.999
==== e(   6) =   -13.20008 eV ==== 
     psi = 0.328*[#  14]+0.328*[#  18]+0.267*[#   6]+0.026*[#  10]+0.026*[#  11]
          +0.014*[#   3]+0.002*[#  16]+0.002*[#  17]+0.002*[#  20]+0.002*[#  21]
          
    |psi|^2 = 0.999
==== e(   7) =    -5.81674 eV ==== 
     psi = 0.267*[#   9]+0.260*[#  15]+0.260*[#  19]+0.039*[#  12]+0.039*[#  13]
          +0.023*[#  14]+0.023*[#  18]+0.014*[#   2]+0.011*[#   1]+0.011*[#  16]
          +0.011*[#  17]+0.011*[#  20]+0.011*[#  21]+0.003*[#   4]+0.003*[#   5]
          +0.002*[#   7]+0.002*[#   8]
    |psi|^2 = 0.987
==== e(   8) =    -4.20338 eV ==== 
     psi = 0.212*[#  12]+0.212*[#  13]+0.089*[#  16]+0.089*[#  17]+0.089*[#  20]
          +0.089*[#  21]+0.061*[#   2]+0.029*[#  14]+0.029*[#  18]+0.023*[#  15]
          +0.023*[#  19]+0.018*[#   9]+0.010*[#   7]+0.010*[#   8]+0.006*[#   1]
          
    |psi|^2 = 0.991
==== e(   9) =    -3.76340 eV ==== 
     psi = 0.175*[#  10]+0.175*[#  11]+0.133*[#  15]+0.133*[#  19]+0.081*[#  16]
          +0.081*[#  17]+0.081*[#  20]+0.081*[#  21]+0.047*[#   6]+0.002*[#  14]
          +0.002*[#  18]
    |psi|^2 = 0.992
==== e(  10) =    -2.87532 eV ==== 
     psi = 0.269*[#  10]+0.269*[#  11]+0.111*[#  20]+0.111*[#  21]+0.110*[#  16]
          +0.110*[#  17]+0.004*[#  15]+0.004*[#  19]
    |psi|^2 = 0.991
==== e(  11) =    -2.78564 eV ==== 
     psi = 0.278*[#  12]+0.278*[#  13]+0.103*[#  16]+0.103*[#  17]+0.102*[#  20]
          +0.102*[#  21]+0.011*[#   7]+0.011*[#   8]+0.001*[#   9]
    |psi|^2 = 0.992
==== e(  12) =    -1.75887 eV ==== 
     psi = 0.301*[#  15]+0.301*[#  19]+0.086*[#  16]+0.086*[#  17]+0.086*[#  20]
          +0.086*[#  21]+0.010*[#  10]+0.010*[#  11]+0.009*[#   3]+0.006*[#  14]
          +0.006*[#  18]+0.002*[#   6]
    |psi|^2 = 0.986
==== e(  13) =    -1.09420 eV ==== 
     psi = 0.520*[#   9]+0.106*[#  15]+0.106*[#  19]+0.065*[#  12]+0.065*[#  13]
          +0.019*[#  16]+0.019*[#  17]+0.019*[#  20]+0.019*[#  21]+0.012*[#  14]
          +0.012*[#  18]+0.008*[#   7]+0.008*[#   8]+0.007*[#   2]
    |psi|^2 = 0.989
==== e(  14) =     1.51473 eV ==== 
     psi = 0.161*[#  12]+0.161*[#  13]+0.114*[#   9]+0.097*[#  16]+0.097*[#  17]
          +0.097*[#  20]+0.097*[#  21]+0.049*[#  15]+0.049*[#  19]+0.011*[#  14]
          +0.011*[#  18]+0.004*[#   2]+0.002*[#   7]+0.002*[#   8]
    |psi|^2 = 0.954
==== e(  15) =     1.86706 eV ==== 
     psi = 0.209*[#  12]+0.209*[#  13]+0.136*[#  16]+0.136*[#  17]+0.135*[#  20]
          +0.135*[#  21]+0.008*[#   7]+0.008*[#   8]+0.005*[#   9]+0.001*[#   2]
          
    |psi|^2 = 0.984
==== e(  16) =     1.88697 eV ==== 
     psi = 0.269*[#  10]+0.269*[#  11]+0.055*[#  16]+0.055*[#  17]+0.055*[#  20]
          +0.055*[#  21]+0.050*[#  14]+0.050*[#  18]+0.040*[#  15]+0.040*[#  19]
          +0.024*[#   6]
    |psi|^2 = 0.963
==== e(  17) =     2.80175 eV ==== 
     psi = 0.216*[#  10]+0.216*[#  11]+0.135*[#  16]+0.135*[#  17]+0.135*[#  20]
          +0.135*[#  21]+0.002*[#  15]+0.002*[#  19]
    |psi|^2 = 0.980

 k =   0.0250000000  0.2742413780 -0.0876501565
==== e(   1) =   -61.40327 eV ==== 
     psi = 0.898*[#   1]+0.040*[#   7]+0.040*[#   8]+0.005*[#  15]+0.005*[#  19]
          +0.004*[#   2]+0.001*[#  16]+0.001*[#  17]+0.001*[#  20]+0.001*[#  21]
          
    |psi|^2 = 1.000
==== e(   2) =   -35.58552 eV ==== 
     psi = 0.978*[#   3]+0.004*[#  14]+0.004*[#  18]+0.002*[#  15]+0.002*[#  19]
          +0.002*[#  16]+0.002*[#  17]+0.002*[#  20]+0.002*[#  21]
    |psi|^2 = 1.000
==== e(   3) =   -35.57783 eV ==== 
     psi = 0.488*[#   4]+0.488*[#   5]+0.010*[#   2]+0.003*[#  15]+0.003*[#  19]
          +0.002*[#   9]+0.001*[#  14]+0.001*[#  18]
    |psi|^2 = 1.000
==== e(   4) =   -35.44190 eV ==== 
     psi = 0.486*[#   4]+0.486*[#   5]+0.011*[#   7]+0.011*[#   8]+0.001*[#  16]
          +0.001*[#  17]+0.001*[#  20]+0.001*[#  21]
    |psi|^2 = 1.000
==== e(   5) =   -13.95898 eV ==== 
     psi = 0.277*[#  18]+0.277*[#  14]+0.150*[#   2]+0.112*[#   7]+0.112*[#   8]
          +0.020*[#   1]+0.009*[#  12]+0.009*[#  13]+0.005*[#  15]+0.005*[#  19]
          +0.004*[#   4]+0.004*[#   5]+0.003*[#  16]+0.003*[#  17]+0.003*[#  20]
          +0.003*[#  21]+0.003*[#   9]
    |psi|^2 = 0.999
==== e(   6) =   -13.09097 eV ==== 
     psi = 0.342*[#  14]+0.341*[#  18]+0.213*[#   6]+0.040*[#  10]+0.040*[#  11]
          +0.011*[#   3]+0.003*[#  16]+0.003*[#  17]+0.003*[#  20]+0.003*[#  21]
          
    |psi|^2 = 0.999
==== e(   7) =    -5.69057 eV ==== 
     psi = 0.215*[#  15]+0.215*[#  19]+0.201*[#   9]+0.097*[#  12]+0.097*[#  13]
          +0.030*[#  16]+0.030*[#  17]+0.030*[#  20]+0.030*[#  21]+0.013*[#  14]
          +0.013*[#  18]+0.007*[#   2]+0.005*[#   1]+0.003*[#   4]+0.003*[#   5]
          
    |psi|^2 = 0.988
==== e(   8) =    -4.46378 eV ==== 
     psi = 0.117*[#  12]+0.117*[#  13]+0.083*[#  20]+0.083*[#  21]+0.083*[#  16]
          +0.083*[#  17]+0.076*[#   2]+0.076*[#  15]+0.076*[#  19]+0.056*[#   9]
          +0.045*[#  14]+0.045*[#  18]+0.018*[#   7]+0.018*[#   8]+0.010*[#   1]
          +0.002*[#   4]+0.002*[#   5]
    |psi|^2 = 0.991
==== e(   9) =    -4.15915 eV ==== 
     psi = 0.161*[#  10]+0.161*[#  11]+0.103*[#  16]+0.103*[#  17]+0.103*[#  20]
          +0.103*[#  21]+0.095*[#  15]+0.095*[#  19]+0.054*[#   6]+0.005*[#  14]
          +0.005*[#  18]
    |psi|^2 = 0.991
==== e(  10) =    -3.13861 eV ==== 
     psi = 0.264*[#  10]+0.264*[#  11]+0.112*[#  20]+0.112*[#  21]+0.112*[#  16]
          +0.112*[#  17]+0.007*[#  15]+0.007*[#  19]
    |psi|^2 = 0.991
==== e(  11) =    -2.53061 eV ==== 
     psi = 0.239*[#  12]+0.239*[#  13]+0.119*[#  16]+0.119*[#  17]+0.119*[#  20]
          +0.119*[#  21]+0.016*[#   7]+0.016*[#   8]+0.003*[#   9]
    |psi|^2 = 0.992
==== e(  12) =    -1.91414 eV ==== 
     psi = 0.308*[#  15]+0.308*[#  19]+0.080*[#  16]+0.080*[#  17]+0.080*[#  20]
          +0.080*[#  21]+0.012*[#  14]+0.012*[#  18]+0.009*[#   3]+0.007*[#  10]
          +0.007*[#  11]+0.004*[#   6]
    |psi|^2 = 0.989
==== e(  13) =    -1.36020 eV ==== 
     psi = 0.460*[#   9]+0.112*[#  12]+0.112*[#  13]+0.080*[#  15]+0.080*[#  19]
          +0.023*[#  16]+0.023*[#  17]+0.023*[#  20]+0.023*[#  21]+0.013*[#  14]
          +0.013*[#  18]+0.009*[#   2]+0.008*[#   7]+0.008*[#   8]
    |psi|^2 = 0.990
==== e(  14) =     1.44146 eV ==== 
     psi = 0.190*[#   9]+0.150*[#  12]+0.150*[#  13]+0.078*[#  16]+0.078*[#  17]
          +0.078*[#  20]+0.078*[#  21]+0.061*[#  15]+0.061*[#  19]+0.008*[#  14]
          +0.008*[#  18]+0.004*[#   2]+0.003*[#   7]+0.003*[#   8]
    |psi|^2 = 0.952
==== e(  15) =     1.71387 eV ==== 
     psi = 0.240*[#  12]+0.240*[#  13]+0.116*[#  16]+0.116*[#  17]+0.116*[#  20]
          +0.116*[#  21]+0.018*[#   9]+0.007*[#   7]+0.007*[#   8]+0.003*[#  15]
          +0.003*[#  19]+0.001*[#   2]
    |psi|^2 = 0.983
==== e(  16) =     2.08622 eV ==== 
     psi = 0.269*[#  10]+0.269*[#  11]+0.068*[#  15]+0.068*[#  19]+0.054*[#  14]
          +0.054*[#  18]+0.037*[#  16]+0.037*[#  17]+0.037*[#  20]+0.037*[#  21]
          +0.027*[#   6]
    |psi|^2 = 0.956
==== e(  17) =     3.05287 eV ==== 
     psi = 0.221*[#  10]+0.221*[#  11]+0.133*[#  16]+0.133*[#  17]+0.133*[#  20]
          +0.133*[#  21]+0.003*[#  15]+0.003*[#  19]+0.001*[#  14]+0.001*[#  18]
          
    |psi|^2 = 0.982

 k =   0.0250000000  0.3319764050 -0.0876501565
==== e(   1) =   -61.39732 eV ==== 
     psi = 0.902*[#   1]+0.036*[#   7]+0.036*[#   8]+0.009*[#   2]+0.004*[#  15]
          +0.004*[#  19]+0.002*[#  16]+0.002*[#  17]+0.002*[#  20]+0.002*[#  21]
          
    |psi|^2 = 1.000
==== e(   2) =   -35.63614 eV ==== 
     psi = 0.486*[#   4]+0.486*[#   5]+0.008*[#   2]+0.004*[#  15]+0.004*[#  19]
          +0.002*[#  14]+0.002*[#  18]+0.001*[#   7]+0.001*[#   8]+0.001*[#   9]
          
    |psi|^2 = 1.000
==== e(   3) =   -35.57360 eV ==== 
     psi = 0.978*[#   3]+0.003*[#  14]+0.003*[#  16]+0.003*[#  17]+0.003*[#  18]
          +0.003*[#  20]+0.003*[#  21]+0.002*[#  15]+0.002*[#  19]
    |psi|^2 = 1.000
==== e(   4) =   -35.45568 eV ==== 
     psi = 0.487*[#   4]+0.487*[#   5]+0.009*[#   7]+0.009*[#   8]+0.002*[#  16]
          +0.002*[#  17]+0.002*[#  20]+0.002*[#  21]
    |psi|^2 = 1.000
==== e(   5) =   -13.66715 eV ==== 
     psi = 0.289*[#  18]+0.288*[#  14]+0.115*[#   7]+0.115*[#   8]+0.109*[#   2]
          +0.016*[#   1]+0.015*[#  12]+0.015*[#  13]+0.005*[#   4]+0.005*[#   5]
          +0.005*[#  15]+0.005*[#  19]+0.003*[#  16]+0.003*[#  17]+0.003*[#  20]
          +0.003*[#  21]+0.003*[#   9]
    |psi|^2 = 0.999
==== e(   6) =   -12.97243 eV ==== 
     psi = 0.356*[#  14]+0.355*[#  18]+0.155*[#   6]+0.056*[#  10]+0.056*[#  11]
          +0.008*[#   3]+0.003*[#  16]+0.003*[#  17]+0.003*[#  20]+0.003*[#  21]
          
    |psi|^2 = 0.999
==== e(   7) =    -5.74695 eV ==== 
     psi = 0.156*[#  12]+0.156*[#  13]+0.127*[#  15]+0.127*[#  19]+0.115*[#   9]
          +0.067*[#  16]+0.067*[#  17]+0.067*[#  20]+0.067*[#  21]+0.018*[#   2]
          +0.006*[#  14]+0.006*[#  18]+0.003*[#   7]+0.003*[#   8]+0.002*[#   1]
          +0.002*[#   4]+0.002*[#   5]
    |psi|^2 = 0.990
==== e(   8) =    -4.56557 eV ==== 
     psi = 0.166*[#  15]+0.166*[#  19]+0.114*[#   9]+0.068*[#   2]+0.063*[#  20]
          +0.063*[#  21]+0.062*[#  16]+0.062*[#  17]+0.056*[#  18]+0.056*[#  14]
          +0.025*[#  12]+0.025*[#  13]+0.022*[#   7]+0.022*[#   8]+0.012*[#   1]
          +0.004*[#   4]+0.004*[#   5]
    |psi|^2 = 0.989
==== e(   9) =    -4.54641 eV ==== 
     psi = 0.141*[#  10]+0.141*[#  11]+0.126*[#  16]+0.126*[#  17]+0.125*[#  20]
          +0.125*[#  21]+0.065*[#  19]+0.065*[#  15]+0.058*[#   6]+0.009*[#  14]
          +0.009*[#  18]+0.002*[#   3]
    |psi|^2 = 0.991
==== e(  10) =    -3.37424 eV ==== 
     psi = 0.261*[#  10]+0.261*[#  11]+0.113*[#  16]+0.113*[#  17]+0.113*[#  20]
          +0.113*[#  21]+0.007*[#  15]+0.007*[#  19]+0.001*[#   6]
    |psi|^2 = 0.992
==== e(  11) =    -2.27450 eV ==== 
     psi = 0.191*[#  12]+0.191*[#  13]+0.138*[#  16]+0.138*[#  17]+0.138*[#  20]
          +0.138*[#  21]+0.021*[#   7]+0.021*[#   8]+0.011*[#   9]+0.001*[#   4]
          +0.001*[#   5]
    |psi|^2 = 0.992
==== e(  12) =    -2.10645 eV ==== 
     psi = 0.313*[#  15]+0.313*[#  19]+0.069*[#  16]+0.069*[#  17]+0.069*[#  20]
          +0.069*[#  21]+0.020*[#  10]+0.020*[#  11]+0.017*[#  14]+0.017*[#  18]
          +0.009*[#   3]+0.005*[#   6]
    |psi|^2 = 0.991
==== e(  13) =    -1.58352 eV ==== 
     psi = 0.402*[#   9]+0.150*[#  12]+0.150*[#  13]+0.071*[#  15]+0.071*[#  19]
          +0.022*[#  16]+0.022*[#  17]+0.022*[#  20]+0.022*[#  21]+0.011*[#   2]
          +0.011*[#  14]+0.011*[#  18]+0.011*[#   7]+0.011*[#   8]
    |psi|^2 = 0.988
==== e(  14) =     1.47036 eV ==== 
     psi = 0.200*[#   9]+0.175*[#  12]+0.175*[#  13]+0.070*[#  16]+0.070*[#  17]
          +0.070*[#  20]+0.070*[#  21]+0.051*[#  15]+0.051*[#  19]+0.006*[#   2]
          +0.005*[#  14]+0.005*[#  18]+0.003*[#   7]+0.003*[#   8]
    |psi|^2 = 0.959
==== e(  15) =     1.62004 eV ==== 
     psi = 0.247*[#  12]+0.247*[#  13]+0.092*[#   9]+0.087*[#  16]+0.087*[#  17]
          +0.087*[#  20]+0.087*[#  21]+0.014*[#  15]+0.014*[#  19]+0.005*[#   7]
          +0.005*[#   8]+0.003*[#   2]
    |psi|^2 = 0.978
==== e(  16) =     2.37039 eV ==== 
     psi = 0.259*[#  10]+0.259*[#  11]+0.092*[#  15]+0.092*[#  19]+0.054*[#  14]
          +0.055*[#  18]+0.031*[#   6]+0.027*[#  16]+0.027*[#  17]+0.027*[#  20]
          +0.027*[#  21]
    |psi|^2 = 0.949
==== e(  17) =     3.26234 eV ==== 
     psi = 0.224*[#  10]+0.224*[#  11]+0.131*[#  16]+0.131*[#  17]+0.131*[#  20]
          +0.131*[#  21]+0.004*[#  15]+0.004*[#  19]+0.002*[#  14]+0.002*[#  18]
          
    |psi|^2 = 0.981

 k =   0.0250000000  0.3897114319 -0.0876501565
==== e(   1) =   -61.39179 eV ==== 
     psi = 0.914*[#   1]+0.028*[#   7]+0.028*[#   8]+0.014*[#   2]+0.003*[#  15]
          +0.003*[#  19]+0.002*[#  16]+0.002*[#  17]+0.002*[#  20]+0.002*[#  21]
          +0.001*[#  12]+0.001*[#  13]
    |psi|^2 = 1.000
==== e(   2) =   -35.68971 eV ==== 
     psi = 0.484*[#   4]+0.484*[#   5]+0.006*[#   2]+0.005*[#  15]+0.005*[#  19]
          +0.003*[#   7]+0.003*[#   8]+0.002*[#  14]+0.002*[#  18]+0.001*[#   9]
          
    |psi|^2 = 1.000
==== e(   3) =   -35.56254 eV ==== 
     psi = 0.977*[#   3]+0.003*[#  16]+0.003*[#  17]+0.003*[#  20]+0.003*[#  21]
          +0.002*[#  14]+0.002*[#  18]+0.001*[#  15]+0.001*[#  19]
    |psi|^2 = 1.000
==== e(   4) =   -35.46842 eV ==== 
     psi = 0.488*[#   4]+0.488*[#   5]+0.008*[#   7]+0.008*[#   8]+0.002*[#  16]
          +0.002*[#  17]+0.002*[#  20]+0.002*[#  21]
    |psi|^2 = 1.000
==== e(   5) =   -13.37474 eV ==== 
     psi = 0.306*[#  18]+0.305*[#  14]+0.109*[#   7]+0.109*[#   8]+0.077*[#   2]
          +0.021*[#  12]+0.021*[#  13]+0.012*[#   1]+0.006*[#   4]+0.006*[#   5]
          +0.006*[#  15]+0.006*[#  19]+0.003*[#   9]+0.003*[#  16]+0.003*[#  17]
          +0.003*[#  20]+0.003*[#  21]
    |psi|^2 = 0.999
==== e(   6) =   -12.85557 eV ==== 
     psi = 0.369*[#  14]+0.369*[#  18]+0.101*[#   6]+0.071*[#  10]+0.071*[#  11]
          +0.005*[#   3]+0.003*[#  16]+0.003*[#  17]+0.003*[#  20]+0.003*[#  21]
          
    |psi|^2 = 0.999
==== e(   7) =    -5.95670 eV ==== 
     psi = 0.157*[#  12]+0.157*[#  13]+0.102*[#  16]+0.102*[#  17]+0.102*[#  20]
          +0.102*[#  21]+0.062*[#  15]+0.062*[#  19]+0.061*[#   9]+0.041*[#   2]
          +0.011*[#   7]+0.011*[#   8]+0.008*[#  14]+0.008*[#  18]+0.003*[#   1]
          +0.001*[#   4]+0.001*[#   5]
    |psi|^2 = 0.991
==== e(   8) =    -4.90173 eV ==== 
     psi = 0.145*[#  16]+0.145*[#  17]+0.145*[#  20]+0.145*[#  21]+0.119*[#  10]
          +0.119*[#  11]+0.059*[#   6]+0.043*[#  15]+0.043*[#  19]+0.014*[#  14]
          +0.014*[#  18]+0.004*[#   3]
    |psi|^2 = 0.992
==== e(   9) =    -4.58085 eV ==== 
     psi = 0.219*[#  15]+0.219*[#  19]+0.146*[#   9]+0.053*[#  14]+0.053*[#  18]
          +0.044*[#  16]+0.044*[#  17]+0.044*[#  20]+0.044*[#  21]+0.042*[#   2]
          +0.018*[#   7]+0.018*[#   8]+0.012*[#  12]+0.012*[#  13]+0.009*[#   1]
          +0.005*[#   4]+0.005*[#   5]
    |psi|^2 = 0.989
==== e(  10) =    -3.56869 eV ==== 
     psi = 0.259*[#  10]+0.259*[#  11]+0.115*[#  16]+0.115*[#  17]+0.115*[#  20]
          +0.115*[#  21]+0.006*[#  15]+0.006*[#  19]+0.002*[#   6]
    |psi|^2 = 0.993
==== e(  11) =    -2.28212 eV ==== 
     psi = 0.318*[#  15]+0.318*[#  19]+0.056*[#  16]+0.056*[#  17]+0.056*[#  20]
          +0.056*[#  21]+0.038*[#  10]+0.038*[#  11]+0.021*[#  14]+0.021*[#  18]
          +0.007*[#   3]+0.007*[#   6]
    |psi|^2 = 0.993
==== e(  12) =    -2.05452 eV ==== 
     psi = 0.152*[#  16]+0.152*[#  17]+0.152*[#  20]+0.152*[#  21]+0.137*[#  12]
          +0.137*[#  13]+0.035*[#   9]+0.026*[#   7]+0.026*[#   8]+0.007*[#  15]
          +0.007*[#  19]+0.003*[#   2]+0.002*[#   4]+0.002*[#   5]
    |psi|^2 = 0.992
==== e(  13) =    -1.64930 eV ==== 
     psi = 0.336*[#   9]+0.160*[#  12]+0.160*[#  13]+0.081*[#  15]+0.081*[#  19]
          +0.024*[#  16]+0.024*[#  17]+0.024*[#  20]+0.024*[#  21]+0.019*[#   7]
          +0.019*[#   8]+0.011*[#   2]+0.008*[#  14]+0.008*[#  18]+0.002*[#   4]
          +0.002*[#   5]
    |psi|^2 = 0.985
==== e(  14) =     1.49499 eV ==== 
     psi = 0.314*[#  12]+0.314*[#  13]+0.068*[#  16]+0.068*[#  17]+0.068*[#  20]
          +0.068*[#  21]+0.040*[#   9]+0.013*[#  15]+0.013*[#  19]+0.003*[#   7]
          +0.003*[#   8]+0.002*[#   2]+0.001*[#  14]+0.001*[#  18]
    |psi|^2 = 0.981
==== e(  15) =     1.66268 eV ==== 
     psi = 0.324*[#   9]+0.155*[#  12]+0.155*[#  13]+0.055*[#  16]+0.055*[#  17]
          +0.055*[#  20]+0.055*[#  21]+0.042*[#  15]+0.042*[#  19]+0.010*[#   2]
          +0.004*[#  14]+0.004*[#  18]+0.003*[#   7]+0.003*[#   8]
    |psi|^2 = 0.961
==== e(  16) =     2.66784 eV ==== 
     psi = 0.247*[#  10]+0.247*[#  11]+0.109*[#  15]+0.109*[#  19]+0.052*[#  14]
          +0.052*[#  18]+0.035*[#   6]+0.022*[#  16]+0.022*[#  17]+0.022*[#  20]
          +0.022*[#  21]
    |psi|^2 = 0.942
==== e(  17) =     3.41719 eV ==== 
     psi = 0.225*[#  10]+0.225*[#  11]+0.128*[#  16]+0.128*[#  17]+0.128*[#  20]
          +0.128*[#  21]+0.005*[#  15]+0.005*[#  19]+0.002*[#  14]+0.002*[#  18]
          
    |psi|^2 = 0.979

 k =   0.0250000000  0.4474464589 -0.0876501565
==== e(   1) =   -61.38724 eV ==== 
     psi = 0.930*[#   1]+0.017*[#   7]+0.017*[#   8]+0.017*[#   2]+0.003*[#  16]
          +0.003*[#  17]+0.003*[#  20]+0.003*[#  21]+0.002*[#  12]+0.002*[#  13]
          +0.002*[#  15]+0.002*[#  19]
    |psi|^2 = 1.000
==== e(   2) =   -35.73346 eV ==== 
     psi = 0.483*[#   4]+0.483*[#   5]+0.006*[#  15]+0.006*[#  19]+0.004*[#   7]
          +0.004*[#   8]+0.003*[#   2]+0.002*[#  14]+0.002*[#  18]
    |psi|^2 = 1.000
==== e(   3) =   -35.55341 eV ==== 
     psi = 0.976*[#   3]+0.004*[#  16]+0.004*[#  17]+0.004*[#  20]+0.004*[#  21]
          +0.003*[#   6]+0.002*[#  14]+0.002*[#  18]
    |psi|^2 = 1.000
==== e(   4) =   -35.47887 eV ==== 
     psi = 0.489*[#   4]+0.489*[#   5]+0.007*[#   7]+0.007*[#   8]+0.002*[#  16]
          +0.002*[#  17]+0.002*[#  20]+0.002*[#  21]
    |psi|^2 = 1.000
==== e(   5) =   -13.11385 eV ==== 
     psi = 0.325*[#  18]+0.325*[#  14]+0.097*[#   7]+0.097*[#   8]+0.051*[#   2]
          +0.029*[#  12]+0.029*[#  13]+0.008*[#   1]+0.007*[#   4]+0.007*[#   5]
          +0.006*[#  15]+0.006*[#  19]+0.002*[#   9]+0.002*[#  16]+0.002*[#  17]
          +0.002*[#  20]+0.002*[#  21]
    |psi|^2 = 0.999
==== e(   6) =   -12.75353 eV ==== 
     psi = 0.380*[#  14]+0.380*[#  18]+0.085*[#  10]+0.085*[#  11]+0.057*[#   6]
          +0.003*[#   3]+0.002*[#  16]+0.002*[#  17]+0.002*[#  20]+0.002*[#  21]
          
    |psi|^2 = 0.999
==== e(   7) =    -6.19510 eV ==== 
     psi = 0.127*[#  16]+0.127*[#  17]+0.127*[#  20]+0.127*[#  21]+0.124*[#  12]
          +0.124*[#  13]+0.061*[#   2]+0.040*[#   9]+0.030*[#  15]+0.030*[#  19]
          +0.022*[#   7]+0.022*[#   8]+0.010*[#  14]+0.010*[#  18]+0.006*[#   1]
          +0.001*[#   4]+0.001*[#   5]
    |psi|^2 = 0.991
==== e(   8) =    -5.19560 eV ==== 
     psi = 0.159*[#  16]+0.159*[#  17]+0.159*[#  20]+0.159*[#  21]+0.100*[#  10]
          +0.100*[#  11]+0.059*[#   6]+0.028*[#  15]+0.028*[#  19]+0.017*[#  14]
          +0.017*[#  18]+0.006*[#   3]
    |psi|^2 = 0.992
==== e(   9) =    -4.62812 eV ==== 
     psi = 0.226*[#  15]+0.226*[#  19]+0.157*[#   9]+0.053*[#  12]+0.053*[#  13]
          +0.045*[#  14]+0.045*[#  18]+0.032*[#  16]+0.032*[#  17]+0.032*[#  20]
          +0.032*[#  21]+0.021*[#   2]+0.011*[#   7]+0.011*[#   8]+0.005*[#   1]
          +0.005*[#   4]+0.005*[#   5]
    |psi|^2 = 0.989
==== e(  10) =    -3.71517 eV ==== 
     psi = 0.257*[#  10]+0.257*[#  11]+0.117*[#  16]+0.117*[#  17]+0.117*[#  20]
          +0.117*[#  21]+0.005*[#  15]+0.005*[#  19]+0.002*[#   6]
    |psi|^2 = 0.993
==== e(  11) =    -2.41560 eV ==== 
     psi = 0.322*[#  15]+0.322*[#  19]+0.053*[#  10]+0.053*[#  11]+0.046*[#  16]
          +0.046*[#  17]+0.046*[#  20]+0.046*[#  21]+0.024*[#  14]+0.024*[#  18]
          +0.007*[#   6]+0.006*[#   3]
    |psi|^2 = 0.994
==== e(  12) =    -1.88305 eV ==== 
     psi = 0.159*[#  16]+0.159*[#  17]+0.159*[#  20]+0.159*[#  21]+0.089*[#  12]
          +0.089*[#  13]+0.057*[#   9]+0.032*[#   7]+0.032*[#   8]+0.023*[#  15]
          +0.023*[#  19]+0.004*[#   2]+0.002*[#  14]+0.002*[#  18]+0.002*[#   4]
          +0.002*[#   5]
    |psi|^2 = 0.991
==== e(  13) =    -1.54711 eV ==== 
     psi = 0.277*[#   9]+0.139*[#  12]+0.139*[#  13]+0.101*[#  15]+0.101*[#  19]
          +0.034*[#  16]+0.034*[#  17]+0.034*[#  20]+0.034*[#  21]+0.030*[#   7]
          +0.030*[#   8]+0.008*[#   2]+0.007*[#  14]+0.007*[#  18]+0.003*[#   4]
          +0.003*[#   5]
    |psi|^2 = 0.984
==== e(  14) =     1.50446 eV ==== 
     psi = 0.389*[#  12]+0.389*[#  13]+0.047*[#  16]+0.047*[#  17]+0.047*[#  20]
          +0.047*[#  21]+0.009*[#   9]+0.005*[#  15]+0.005*[#  19]+0.003*[#   7]
          +0.003*[#   8]
    |psi|^2 = 0.989
==== e(  15) =     1.80749 eV ==== 
     psi = 0.414*[#   9]+0.132*[#  12]+0.132*[#  13]+0.047*[#  16]+0.047*[#  17]
          +0.047*[#  20]+0.047*[#  21]+0.035*[#  15]+0.035*[#  19]+0.013*[#   2]
          +0.004*[#  14]+0.004*[#  18]+0.003*[#   7]+0.003*[#   8]
    |psi|^2 = 0.961
==== e(  16) =     2.92069 eV ==== 
     psi = 0.236*[#  10]+0.236*[#  11]+0.121*[#  15]+0.121*[#  19]+0.050*[#  14]
          +0.050*[#  18]+0.036*[#   6]+0.020*[#  16]+0.020*[#  17]+0.020*[#  20]
          +0.020*[#  21]
    |psi|^2 = 0.930
==== e(  17) =     3.51494 eV ==== 
     psi = 0.226*[#  10]+0.226*[#  11]+0.127*[#  16]+0.127*[#  17]+0.127*[#  20]
          +0.127*[#  21]+0.006*[#  15]+0.006*[#  19]+0.002*[#  14]+0.002*[#  18]
          
    |psi|^2 = 0.975

 k =   0.0250000000  0.5051814858 -0.0876501565
==== e(   1) =   -61.38411 eV ==== 
     psi = 0.947*[#   1]+0.018*[#   2]+0.006*[#   7]+0.006*[#   8]+0.003*[#  16]
          +0.003*[#  17]+0.003*[#  20]+0.003*[#  21]+0.003*[#  12]+0.003*[#  13]
          +0.001*[#  15]+0.001*[#  19]
    |psi|^2 = 1.000
==== e(   2) =   -35.76335 eV ==== 
     psi = 0.482*[#   4]+0.482*[#   5]+0.007*[#  15]+0.007*[#  19]+0.005*[#   7]
          +0.005*[#   8]+0.003*[#  14]+0.003*[#  18]+0.001*[#   2]
    |psi|^2 = 1.000
==== e(   3) =   -35.54713 eV ==== 
     psi = 0.974*[#   3]+0.006*[#   6]+0.004*[#  16]+0.004*[#  17]+0.004*[#  20]
          +0.004*[#  21]+0.001*[#  14]+0.001*[#  18]
    |psi|^2 = 1.000
==== e(   4) =   -35.48604 eV ==== 
     psi = 0.490*[#   4]+0.490*[#   5]+0.006*[#   7]+0.006*[#   8]+0.002*[#  16]
          +0.002*[#  17]+0.002*[#  20]+0.002*[#  21]
    |psi|^2 = 1.000
==== e(   5) =   -12.92129 eV ==== 
     psi = 0.343*[#  18]+0.342*[#  14]+0.084*[#   7]+0.084*[#   8]+0.037*[#  12]
          +0.037*[#  13]+0.034*[#   2]+0.007*[#   4]+0.007*[#   5]+0.007*[#  15]
          +0.007*[#  19]+0.004*[#   1]+0.002*[#   9]+0.001*[#  16]+0.001*[#  17]
          +0.001*[#  20]+0.001*[#  21]
    |psi|^2 = 0.999
==== e(   6) =   -12.67993 eV ==== 
     psi = 0.388*[#  14]+0.387*[#  18]+0.094*[#  10]+0.094*[#  11]+0.028*[#   6]
          +0.001*[#   3]+0.001*[#  15]+0.001*[#  19]
    |psi|^2 = 0.999
==== e(   7) =    -6.38158 eV ==== 
     psi = 0.144*[#  16]+0.144*[#  17]+0.144*[#  20]+0.144*[#  21]+0.091*[#  12]
          +0.091*[#  13]+0.074*[#   2]+0.032*[#   9]+0.031*[#   7]+0.031*[#   8]
          +0.016*[#  15]+0.016*[#  19]+0.010*[#  14]+0.010*[#  18]+0.008*[#   1]
          +0.002*[#   4]+0.002*[#   5]
    |psi|^2 = 0.990
==== e(   8) =    -5.39922 eV ==== 
     psi = 0.168*[#  16]+0.168*[#  17]+0.168*[#  20]+0.168*[#  21]+0.087*[#  10]
          +0.087*[#  11]+0.058*[#   6]+0.020*[#  15]+0.020*[#  19]+0.020*[#  14]
          +0.020*[#  18]+0.007*[#   3]
    |psi|^2 = 0.992
==== e(   9) =    -4.70157 eV ==== 
     psi = 0.218*[#  15]+0.219*[#  19]+0.160*[#   9]+0.099*[#  12]+0.099*[#  13]
          +0.037*[#  14]+0.037*[#  18]+0.023*[#  16]+0.023*[#  17]+0.023*[#  20]
          +0.023*[#  21]+0.008*[#   2]+0.005*[#   7]+0.005*[#   8]+0.004*[#   4]
          +0.004*[#   5]+0.002*[#   1]
    |psi|^2 = 0.990
==== e(  10) =    -3.81000 eV ==== 
     psi = 0.256*[#  10]+0.256*[#  11]+0.118*[#  16]+0.118*[#  17]+0.118*[#  20]
          +0.118*[#  21]+0.003*[#  15]+0.003*[#  19]+0.002*[#   6]
    |psi|^2 = 0.993
==== e(  11) =    -2.49979 eV ==== 
     psi = 0.324*[#  15]+0.324*[#  19]+0.063*[#  10]+0.063*[#  11]+0.040*[#  16]
          +0.040*[#  17]+0.040*[#  20]+0.040*[#  21]+0.025*[#  14]+0.025*[#  18]
          +0.007*[#   6]+0.004*[#   3]
    |psi|^2 = 0.994
==== e(  12) =    -1.75657 eV ==== 
     psi = 0.176*[#  16]+0.176*[#  17]+0.176*[#  20]+0.176*[#  21]+0.051*[#  12]
          +0.051*[#  13]+0.046*[#   9]+0.035*[#   7]+0.035*[#   8]+0.028*[#  15]
          +0.028*[#  19]+0.003*[#  14]+0.003*[#  18]+0.002*[#   4]+0.002*[#   5]
          +0.002*[#   2]
    |psi|^2 = 0.992
==== e(  13) =    -1.39019 eV ==== 
     psi = 0.260*[#   9]+0.131*[#  15]+0.131*[#  19]+0.114*[#  12]+0.114*[#  13]
          +0.042*[#   7]+0.042*[#   8]+0.031*[#  16]+0.031*[#  17]+0.031*[#  20]
          +0.031*[#  21]+0.007*[#  14]+0.007*[#  18]+0.004*[#   4]+0.004*[#   5]
          +0.003*[#   2]
    |psi|^2 = 0.984
==== e(  14) =     1.52862 eV ==== 
     psi = 0.429*[#  12]+0.429*[#  13]+0.028*[#  16]+0.028*[#  17]+0.028*[#  20]
          +0.028*[#  21]+0.013*[#   9]+0.003*[#  15]+0.003*[#  19]+0.002*[#   7]
          +0.002*[#   8]
    |psi|^2 = 0.993
==== e(  15) =     1.95884 eV ==== 
     psi = 0.454*[#   9]+0.135*[#  12]+0.135*[#  13]+0.043*[#  16]+0.043*[#  17]
          +0.043*[#  20]+0.043*[#  21]+0.022*[#  15]+0.022*[#  19]+0.013*[#   2]
          +0.004*[#   7]+0.004*[#   8]+0.004*[#  14]+0.004*[#  18]
    |psi|^2 = 0.968
==== e(  16) =     3.09334 eV ==== 
     psi = 0.226*[#  10]+0.226*[#  11]+0.128*[#  15]+0.128*[#  19]+0.049*[#  14]
          +0.049*[#  18]+0.032*[#   6]+0.018*[#  16]+0.018*[#  17]+0.018*[#  20]
          +0.018*[#  21]
    |psi|^2 = 0.911
==== e(  17) =     3.56244 eV ==== 
     psi = 0.225*[#  10]+0.225*[#  11]+0.128*[#  16]+0.128*[#  17]+0.128*[#  20]
          +0.128*[#  21]+0.004*[#  15]+0.004*[#  19]+0.001*[#  14]+0.001*[#  18]
          
    |psi|^2 = 0.972

 k =   0.0250000000  0.5629165128 -0.0876501565
==== e(   1) =   -61.38271 eV ==== 
     psi = 0.956*[#   1]+0.018*[#   2]+0.004*[#  16]+0.004*[#  17]+0.004*[#  20]
          +0.004*[#  21]+0.003*[#  12]+0.003*[#  13]+0.001*[#  15]+0.001*[#  19]
          
    |psi|^2 = 1.000
==== e(   2) =   -35.77667 eV ==== 
     psi = 0.482*[#   4]+0.482*[#   5]+0.007*[#  15]+0.007*[#  19]+0.006*[#   7]
          +0.006*[#   8]+0.003*[#  14]+0.003*[#  18]
    |psi|^2 = 1.000
==== e(   3) =   -35.54432 eV ==== 
     psi = 0.973*[#   3]+0.007*[#   6]+0.004*[#  16]+0.004*[#  17]+0.004*[#  20]
          +0.004*[#  21]
    |psi|^2 = 1.000
==== e(   4) =   -35.48924 eV ==== 
     psi = 0.490*[#   4]+0.490*[#   5]+0.006*[#   7]+0.006*[#   8]+0.002*[#  16]
          +0.002*[#  17]+0.002*[#  20]+0.002*[#  21]
    |psi|^2 = 1.000
==== e(   5) =   -12.83110 eV ==== 
     psi = 0.352*[#  18]+0.351*[#  14]+0.077*[#   7]+0.077*[#   8]+0.041*[#  12]
          +0.041*[#  13]+0.027*[#   2]+0.007*[#   4]+0.007*[#   5]+0.007*[#  15]
          +0.007*[#  19]+0.002*[#   1]+0.001*[#   9]
    |psi|^2 = 0.999
==== e(   6) =   -12.64603 eV ==== 
     psi = 0.392*[#  14]+0.391*[#  18]+0.098*[#  10]+0.098*[#  11]+0.015*[#   6]
          +0.001*[#  15]+0.001*[#  19]
    |psi|^2 = 0.999
==== e(   7) =    -6.47030 eV ==== 
     psi = 0.152*[#  16]+0.152*[#  17]+0.152*[#  20]+0.152*[#  21]+0.080*[#   2]
          +0.073*[#  12]+0.073*[#  13]+0.036*[#   7]+0.036*[#   8]+0.031*[#   9]
          +0.010*[#  15]+0.010*[#  19]+0.009*[#   1]+0.008*[#  14]+0.008*[#  18]
          +0.002*[#   4]+0.002*[#   5]
    |psi|^2 = 0.989
==== e(   8) =    -5.49078 eV ==== 
     psi = 0.172*[#  16]+0.172*[#  17]+0.172*[#  20]+0.172*[#  21]+0.081*[#  10]
          +0.081*[#  11]+0.059*[#   6]+0.021*[#  14]+0.021*[#  18]+0.017*[#  15]
          +0.017*[#  19]+0.008*[#   3]
    |psi|^2 = 0.992
==== e(   9) =    -4.74584 eV ==== 
     psi = 0.213*[#  15]+0.213*[#  19]+0.161*[#   9]+0.123*[#  12]+0.123*[#  13]
          +0.033*[#  14]+0.033*[#  18]+0.019*[#  16]+0.019*[#  17]+0.019*[#  20]
          +0.019*[#  21]+0.003*[#   2]+0.003*[#   4]+0.003*[#   5]+0.002*[#   7]
          +0.002*[#   8]
    |psi|^2 = 0.990
==== e(  10) =    -3.85104 eV ==== 
     psi = 0.255*[#  10]+0.255*[#  11]+0.119*[#  16]+0.119*[#  17]+0.119*[#  20]
          +0.119*[#  21]+0.002*[#  15]+0.002*[#  19]+0.002*[#   6]
    |psi|^2 = 0.993
==== e(  11) =    -2.53528 eV ==== 
     psi = 0.325*[#  15]+0.325*[#  19]+0.067*[#  10]+0.067*[#  11]+0.037*[#  16]
          +0.037*[#  17]+0.037*[#  20]+0.037*[#  21]+0.026*[#  14]+0.026*[#  18]
          +0.007*[#   6]+0.003*[#   3]
    |psi|^2 = 0.994
==== e(  12) =    -1.69841 eV ==== 
     psi = 0.188*[#  16]+0.188*[#  17]+0.188*[#  20]+0.188*[#  21]+0.037*[#   9]
          +0.036*[#   7]+0.036*[#   8]+0.033*[#  12]+0.033*[#  13]+0.026*[#  15]
          +0.026*[#  19]+0.003*[#  14]+0.003*[#  18]+0.002*[#   4]+0.002*[#   5]
          +0.001*[#   2]
    |psi|^2 = 0.993
==== e(  13) =    -1.29434 eV ==== 
     psi = 0.256*[#   9]+0.150*[#  15]+0.150*[#  19]+0.101*[#  12]+0.101*[#  13]
          +0.049*[#   7]+0.049*[#   8]+0.026*[#  16]+0.026*[#  17]+0.026*[#  20]
          +0.026*[#  21]+0.008*[#  14]+0.008*[#  18]+0.004*[#   4]+0.004*[#   5]
          
    |psi|^2 = 0.984
==== e(  14) =     1.54535 eV ==== 
     psi = 0.446*[#  12]+0.446*[#  13]+0.019*[#  16]+0.019*[#  17]+0.019*[#  20]
          +0.019*[#  21]+0.018*[#   9]+0.002*[#   7]+0.002*[#   8]+0.002*[#  15]
          +0.002*[#  19]
    |psi|^2 = 0.995
==== e(  15) =     2.04731 eV ==== 
     psi = 0.473*[#   9]+0.140*[#  12]+0.140*[#  13]+0.041*[#  16]+0.041*[#  17]
          +0.041*[#  20]+0.041*[#  21]+0.014*[#  15]+0.014*[#  19]+0.012*[#   2]
          +0.006*[#   7]+0.006*[#   8]+0.004*[#  14]+0.004*[#  18]
    |psi|^2 = 0.976
==== e(  16) =     3.16989 eV ==== 
     psi = 0.221*[#  10]+0.221*[#  11]+0.132*[#  15]+0.132*[#  19]+0.050*[#  14]
          +0.050*[#  18]+0.028*[#   6]+0.016*[#  16]+0.016*[#  17]+0.016*[#  20]
          +0.016*[#  21]
    |psi|^2 = 0.897
==== e(  17) =     3.57651 eV ==== 
     psi = 0.226*[#  10]+0.226*[#  11]+0.129*[#  16]+0.129*[#  17]+0.129*[#  20]
          +0.129*[#  21]
    |psi|^2 = 0.971

 k =   0.0250000000 -0.5340489993 -0.0876501565
==== e(   1) =   -61.38318 eV ==== 
     psi = 0.953*[#   1]+0.018*[#   2]+0.004*[#  16]+0.004*[#  17]+0.004*[#  20]
          +0.004*[#  21]+0.003*[#  12]+0.003*[#  13]+0.002*[#   7]+0.002*[#   8]
          +0.001*[#  15]+0.001*[#  19]
    |psi|^2 = 1.000
==== e(   2) =   -35.77219 eV ==== 
     psi = 0.482*[#   4]+0.482*[#   5]+0.007*[#  15]+0.007*[#  19]+0.006*[#   7]
          +0.006*[#   8]+0.003*[#  14]+0.003*[#  18]
    |psi|^2 = 1.000
==== e(   3) =   -35.54527 eV ==== 
     psi = 0.973*[#   3]+0.007*[#   6]+0.004*[#  16]+0.004*[#  17]+0.004*[#  20]
          +0.004*[#  21]+0.001*[#  14]+0.001*[#  18]
    |psi|^2 = 1.000
==== e(   4) =   -35.48817 eV ==== 
     psi = 0.490*[#   4]+0.490*[#   5]+0.006*[#   7]+0.006*[#   8]+0.002*[#  16]
          +0.002*[#  17]+0.002*[#  20]+0.002*[#  21]
    |psi|^2 = 1.000
==== e(   5) =   -12.86172 eV ==== 
     psi = 0.349*[#  18]+0.348*[#  14]+0.079*[#   7]+0.079*[#   8]+0.040*[#  12]
          +0.040*[#  13]+0.029*[#   2]+0.007*[#   4]+0.007*[#   5]+0.007*[#  15]
          +0.007*[#  19]+0.002*[#   1]+0.002*[#   9]
    |psi|^2 = 0.999
==== e(   6) =   -12.65750 eV ==== 
     psi = 0.391*[#  14]+0.390*[#  18]+0.097*[#  10]+0.097*[#  11]+0.020*[#   6]
          +0.001*[#  15]+0.001*[#  19]+0.001*[#   3]
    |psi|^2 = 0.999
==== e(   7) =    -6.44011 eV ==== 
     psi = 0.150*[#  16]+0.150*[#  17]+0.150*[#  20]+0.150*[#  21]+0.079*[#  12]
          +0.079*[#  13]+0.078*[#   2]+0.034*[#   7]+0.034*[#   8]+0.031*[#   9]
          +0.012*[#  15]+0.012*[#  19]+0.009*[#   1]+0.009*[#  14]+0.009*[#  18]
          +0.002*[#   4]+0.002*[#   5]
    |psi|^2 = 0.989
==== e(   8) =    -5.45996 eV ==== 
     psi = 0.171*[#  16]+0.171*[#  17]+0.171*[#  20]+0.171*[#  21]+0.083*[#  10]
          +0.083*[#  11]+0.059*[#   6]+0.021*[#  14]+0.021*[#  18]+0.018*[#  15]
          +0.018*[#  19]+0.008*[#   3]
    |psi|^2 = 0.992
==== e(   9) =    -4.73021 eV ==== 
     psi = 0.215*[#  15]+0.215*[#  19]+0.161*[#   9]+0.114*[#  12]+0.114*[#  13]
          +0.034*[#  14]+0.034*[#  18]+0.020*[#  16]+0.020*[#  17]+0.020*[#  20]
          +0.020*[#  21]+0.005*[#   2]+0.004*[#   4]+0.004*[#   5]+0.003*[#   7]
          +0.003*[#   8]+0.001*[#   1]
    |psi|^2 = 0.990
==== e(  10) =    -3.83733 eV ==== 
     psi = 0.256*[#  10]+0.256*[#  11]+0.119*[#  16]+0.119*[#  17]+0.119*[#  20]
          +0.119*[#  21]+0.002*[#  15]+0.002*[#  19]+0.002*[#   6]
    |psi|^2 = 0.993
==== e(  11) =    -2.52350 eV ==== 
     psi = 0.325*[#  15]+0.325*[#  19]+0.066*[#  10]+0.066*[#  11]+0.038*[#  16]
          +0.038*[#  17]+0.038*[#  20]+0.038*[#  21]+0.025*[#  14]+0.025*[#  18]
          +0.007*[#   6]+0.004*[#   3]
    |psi|^2 = 0.994
==== e(  12) =    -1.71794 eV ==== 
     psi = 0.184*[#  16]+0.184*[#  17]+0.184*[#  20]+0.184*[#  21]+0.040*[#   9]
          +0.039*[#  12]+0.039*[#  13]+0.036*[#   7]+0.036*[#   8]+0.027*[#  15]
          +0.027*[#  19]+0.003*[#  14]+0.003*[#  18]+0.002*[#   4]+0.002*[#   5]
          +0.002*[#   2]
    |psi|^2 = 0.992
==== e(  13) =    -1.32853 eV ==== 
     psi = 0.257*[#   9]+0.143*[#  15]+0.143*[#  19]+0.106*[#  12]+0.106*[#  13]
          +0.046*[#   7]+0.046*[#   8]+0.028*[#  16]+0.028*[#  17]+0.028*[#  20]
          +0.028*[#  21]+0.008*[#  14]+0.008*[#  18]+0.004*[#   4]+0.004*[#   5]
          +0.001*[#   2]
    |psi|^2 = 0.984
==== e(  14) =     1.53931 eV ==== 
     psi = 0.440*[#  12]+0.440*[#  13]+0.022*[#  16]+0.022*[#  17]+0.022*[#  20]
          +0.022*[#  21]+0.016*[#   9]+0.002*[#   7]+0.002*[#   8]+0.002*[#  15]
          +0.002*[#  19]
    |psi|^2 = 0.994
==== e(  15) =     2.01566 eV ==== 
     psi = 0.466*[#   9]+0.138*[#  12]+0.138*[#  13]+0.042*[#  16]+0.042*[#  17]
          +0.042*[#  20]+0.042*[#  21]+0.017*[#  15]+0.017*[#  19]+0.012*[#   2]
          +0.005*[#   7]+0.005*[#   8]+0.004*[#  14]+0.004*[#  18]
    |psi|^2 = 0.973
==== e(  16) =     3.14418 eV ==== 
     psi = 0.223*[#  10]+0.223*[#  11]+0.131*[#  15]+0.131*[#  19]+0.049*[#  14]
          +0.049*[#  18]+0.030*[#   6]+0.017*[#  16]+0.017*[#  17]+0.017*[#  20]
          +0.017*[#  21]
    |psi|^2 = 0.903
==== e(  17) =     3.57238 eV ==== 
     psi = 0.225*[#  10]+0.225*[#  11]+0.129*[#  16]+0.129*[#  17]+0.129*[#  20]
          +0.129*[#  21]+0.002*[#  15]+0.002*[#  19]
    |psi|^2 = 0.971

 k =   0.0250000000 -0.4763139723 -0.0876501565
==== e(   1) =   -61.38547 eV ==== 
     psi = 0.939*[#   1]+0.017*[#   2]+0.011*[#   7]+0.011*[#   8]+0.003*[#  16]
          +0.003*[#  17]+0.003*[#  20]+0.003*[#  21]+0.002*[#  12]+0.002*[#  13]
          +0.002*[#  15]+0.002*[#  19]
    |psi|^2 = 1.000
==== e(   2) =   -35.75034 eV ==== 
     psi = 0.483*[#   4]+0.483*[#   5]+0.007*[#  15]+0.007*[#  19]+0.005*[#   7]
          +0.005*[#   8]+0.003*[#  14]+0.003*[#  18]+0.002*[#   2]
    |psi|^2 = 1.000
==== e(   3) =   -35.54987 eV ==== 
     psi = 0.975*[#   3]+0.004*[#   6]+0.004*[#  16]+0.004*[#  17]+0.004*[#  20]
          +0.004*[#  21]+0.001*[#  14]+0.001*[#  18]
    |psi|^2 = 1.000
==== e(   4) =   -35.48292 eV ==== 
     psi = 0.489*[#   4]+0.489*[#   5]+0.006*[#   7]+0.006*[#   8]+0.002*[#  16]
          +0.002*[#  17]+0.002*[#  20]+0.002*[#  21]
    |psi|^2 = 1.000
==== e(   5) =   -13.00670 eV ==== 
     psi = 0.335*[#  18]+0.334*[#  14]+0.091*[#   7]+0.091*[#   8]+0.042*[#   2]
          +0.033*[#  12]+0.033*[#  13]+0.007*[#   4]+0.007*[#   5]+0.006*[#  15]
          +0.006*[#  19]+0.005*[#   1]+0.002*[#   9]+0.001*[#  16]+0.001*[#  17]
          +0.001*[#  20]+0.001*[#  21]
    |psi|^2 = 0.999
==== e(   6) =   -12.71238 eV ==== 
     psi = 0.385*[#  14]+0.384*[#  18]+0.090*[#  10]+0.090*[#  11]+0.041*[#   6]
          +0.002*[#   3]+0.001*[#  16]+0.001*[#  17]+0.001*[#  20]+0.001*[#  21]
          +0.001*[#  15]+0.001*[#  19]
    |psi|^2 = 0.999
==== e(   7) =    -6.29826 eV ==== 
     psi = 0.137*[#  16]+0.137*[#  17]+0.137*[#  20]+0.137*[#  21]+0.106*[#  12]
          +0.106*[#  13]+0.069*[#   2]+0.035*[#   9]+0.027*[#   7]+0.027*[#   8]
          +0.022*[#  15]+0.022*[#  19]+0.010*[#  14]+0.010*[#  18]+0.007*[#   1]
          +0.002*[#   4]+0.002*[#   5]
    |psi|^2 = 0.990
==== e(   8) =    -5.31028 eV ==== 
     psi = 0.164*[#  16]+0.164*[#  17]+0.164*[#  20]+0.164*[#  21]+0.092*[#  10]
          +0.092*[#  11]+0.058*[#   6]+0.023*[#  15]+0.023*[#  19]+0.019*[#  14]
          +0.019*[#  18]+0.007*[#   3]
    |psi|^2 = 0.992
==== e(   9) =    -4.66513 eV ==== 
     psi = 0.223*[#  15]+0.223*[#  19]+0.159*[#   9]+0.077*[#  12]+0.077*[#  13]
          +0.040*[#  14]+0.040*[#  18]+0.027*[#  16]+0.027*[#  17]+0.027*[#  20]
          +0.027*[#  21]+0.013*[#   2]+0.007*[#   7]+0.007*[#   8]+0.004*[#   4]
          +0.004*[#   5]+0.003*[#   1]
    |psi|^2 = 0.989
==== e(  10) =    -3.76921 eV ==== 
     psi = 0.256*[#  10]+0.256*[#  11]+0.118*[#  16]+0.118*[#  17]+0.118*[#  20]
          +0.118*[#  21]+0.004*[#  15]+0.004*[#  19]+0.002*[#   6]
    |psi|^2 = 0.993
==== e(  11) =    -2.46390 eV ==== 
     psi = 0.323*[#  15]+0.323*[#  19]+0.058*[#  10]+0.058*[#  11]+0.043*[#  16]
          +0.043*[#  17]+0.042*[#  20]+0.042*[#  21]+0.024*[#  14]+0.024*[#  18]
          +0.007*[#   6]+0.005*[#   3]
    |psi|^2 = 0.994
==== e(  12) =    -1.81274 eV ==== 
     psi = 0.167*[#  16]+0.167*[#  17]+0.167*[#  20]+0.167*[#  21]+0.068*[#  12]
          +0.068*[#  13]+0.054*[#   9]+0.034*[#   7]+0.034*[#   8]+0.027*[#  15]
          +0.027*[#  19]+0.003*[#   2]+0.003*[#  14]+0.003*[#  18]+0.002*[#   4]
          +0.002*[#   5]
    |psi|^2 = 0.991
==== e(  13) =    -1.46769 eV ==== 
     psi = 0.265*[#   9]+0.126*[#  12]+0.126*[#  13]+0.116*[#  15]+0.116*[#  19]
          +0.036*[#   7]+0.036*[#   8]+0.034*[#  16]+0.034*[#  17]+0.034*[#  20]
          +0.034*[#  21]+0.007*[#  14]+0.007*[#  18]+0.006*[#   2]+0.003*[#   4]
          +0.003*[#   5]
    |psi|^2 = 0.984
==== e(  14) =     1.51589 eV ==== 
     psi = 0.412*[#  12]+0.412*[#  13]+0.036*[#  16]+0.036*[#  17]+0.036*[#  20]
          +0.036*[#  21]+0.010*[#   9]+0.004*[#  15]+0.004*[#  19]+0.003*[#   7]
          +0.003*[#   8]
    |psi|^2 = 0.991
==== e(  15) =     1.88639 eV ==== 
     psi = 0.437*[#   9]+0.132*[#  12]+0.132*[#  13]+0.045*[#  16]+0.045*[#  17]
          +0.045*[#  20]+0.045*[#  21]+0.028*[#  15]+0.028*[#  19]+0.014*[#   2]
          +0.004*[#  14]+0.004*[#  18]+0.003*[#   7]+0.003*[#   8]
    |psi|^2 = 0.964
==== e(  16) =     3.01837 eV ==== 
     psi = 0.231*[#  10]+0.231*[#  11]+0.125*[#  15]+0.125*[#  19]+0.049*[#  14]
          +0.049*[#  18]+0.035*[#   6]+0.019*[#  16]+0.019*[#  17]+0.019*[#  20]
          +0.019*[#  21]
    |psi|^2 = 0.921
==== e(  17) =     3.54412 eV ==== 
     psi = 0.226*[#  10]+0.226*[#  11]+0.127*[#  16]+0.127*[#  17]+0.127*[#  20]
          +0.127*[#  21]+0.005*[#  15]+0.005*[#  19]+0.002*[#  14]+0.002*[#  18]
          
    |psi|^2 = 0.973

 k =   0.0250000000 -0.4185789454 -0.0876501565
==== e(   1) =   -61.38936 eV ==== 
     psi = 0.922*[#   1]+0.023*[#   7]+0.023*[#   8]+0.015*[#   2]+0.002*[#  15]
          +0.002*[#  16]+0.002*[#  17]+0.002*[#  19]+0.002*[#  20]+0.002*[#  21]
          +0.002*[#  12]+0.002*[#  13]
    |psi|^2 = 1.000
==== e(   2) =   -35.71309 eV ==== 
     psi = 0.484*[#   4]+0.484*[#   5]+0.006*[#  15]+0.006*[#  19]+0.005*[#   2]
          +0.004*[#   7]+0.004*[#   8]+0.002*[#  14]+0.002*[#  18]
    |psi|^2 = 1.000
==== e(   3) =   -35.55767 eV ==== 
     psi = 0.977*[#   3]+0.004*[#  16]+0.004*[#  17]+0.004*[#  20]+0.004*[#  21]
          +0.002*[#  14]+0.002*[#  18]+0.002*[#   6]
    |psi|^2 = 1.000
==== e(   4) =   -35.47400 eV ==== 
     psi = 0.489*[#   4]+0.489*[#   5]+0.007*[#   7]+0.007*[#   8]+0.002*[#  16]
          +0.002*[#  17]+0.002*[#  20]+0.002*[#  21]
    |psi|^2 = 1.000
==== e(   5) =   -13.23811 eV ==== 
     psi = 0.315*[#  18]+0.315*[#  14]+0.104*[#   7]+0.104*[#   8]+0.063*[#   2]
          +0.025*[#  12]+0.025*[#  13]+0.010*[#   1]+0.007*[#   4]+0.007*[#   5]
          +0.006*[#  15]+0.006*[#  19]+0.002*[#   9]+0.002*[#  16]+0.002*[#  17]
          +0.002*[#  20]+0.002*[#  21]
    |psi|^2 = 0.999
==== e(   6) =   -12.80183 eV ==== 
     psi = 0.375*[#  14]+0.375*[#  18]+0.078*[#  10]+0.078*[#  11]+0.078*[#   6]
          +0.004*[#   3]+0.002*[#  16]+0.002*[#  17]+0.002*[#  20]+0.002*[#  21]
          
    |psi|^2 = 0.999
==== e(   7) =    -6.07850 eV ==== 
     psi = 0.142*[#  12]+0.142*[#  13]+0.115*[#  16]+0.115*[#  17]+0.115*[#  20]
          +0.115*[#  21]+0.052*[#   2]+0.048*[#   9]+0.043*[#  15]+0.043*[#  19]
          +0.016*[#   7]+0.016*[#   8]+0.009*[#  14]+0.009*[#  18]+0.004*[#   1]
          +0.001*[#   4]+0.001*[#   5]
    |psi|^2 = 0.991
==== e(   8) =    -5.05825 eV ==== 
     psi = 0.153*[#  16]+0.153*[#  17]+0.153*[#  20]+0.153*[#  21]+0.109*[#  10]
          +0.109*[#  11]+0.059*[#   6]+0.035*[#  15]+0.035*[#  19]+0.016*[#  14]
          +0.016*[#  18]+0.005*[#   3]
    |psi|^2 = 0.992
==== e(   9) =    -4.59829 eV ==== 
     psi = 0.226*[#  15]+0.226*[#  19]+0.153*[#   9]+0.049*[#  14]+0.049*[#  18]
          +0.038*[#  16]+0.038*[#  17]+0.038*[#  20]+0.038*[#  21]+0.030*[#   2]
          +0.029*[#  12]+0.029*[#  13]+0.015*[#   7]+0.015*[#   8]+0.007*[#   1]
          +0.005*[#   4]+0.005*[#   5]
    |psi|^2 = 0.989
==== e(  10) =    -3.64820 eV ==== 
     psi = 0.258*[#  10]+0.258*[#  11]+0.116*[#  16]+0.116*[#  17]+0.116*[#  20]
          +0.116*[#  21]+0.005*[#  15]+0.005*[#  19]+0.002*[#   6]
    |psi|^2 = 0.993
==== e(  11) =    -2.35487 eV ==== 
     psi = 0.320*[#  15]+0.320*[#  19]+0.051*[#  16]+0.051*[#  17]+0.051*[#  20]
          +0.051*[#  21]+0.046*[#  10]+0.046*[#  11]+0.023*[#  14]+0.023*[#  18]
          +0.007*[#   6]+0.006*[#   3]
    |psi|^2 = 0.994
==== e(  12) =    -1.96376 eV ==== 
     psi = 0.155*[#  16]+0.155*[#  17]+0.155*[#  20]+0.155*[#  21]+0.112*[#  12]
          +0.112*[#  13]+0.051*[#   9]+0.029*[#   7]+0.029*[#   8]+0.015*[#  15]
          +0.015*[#  19]+0.004*[#   2]+0.002*[#   4]+0.002*[#   5]+0.002*[#  14]
          +0.002*[#  18]
    |psi|^2 = 0.991
==== e(  13) =    -1.61326 eV ==== 
     psi = 0.301*[#   9]+0.152*[#  12]+0.152*[#  13]+0.090*[#  15]+0.090*[#  19]
          +0.030*[#  16]+0.030*[#  17]+0.030*[#  20]+0.030*[#  21]+0.025*[#   7]
          +0.025*[#   8]+0.010*[#   2]+0.007*[#  14]+0.007*[#  18]+0.002*[#   4]
          +0.002*[#   5]
    |psi|^2 = 0.984
==== e(  14) =     1.49736 eV ==== 
     psi = 0.358*[#  12]+0.358*[#  13]+0.058*[#  16]+0.058*[#  17]+0.058*[#  20]
          +0.058*[#  21]+0.015*[#   9]+0.007*[#  15]+0.007*[#  19]+0.003*[#   7]
          +0.003*[#   8]
    |psi|^2 = 0.986
==== e(  15) =     1.73006 eV ==== 
     psi = 0.381*[#   9]+0.137*[#  12]+0.137*[#  13]+0.049*[#  16]+0.049*[#  17]
          +0.049*[#  20]+0.049*[#  21]+0.041*[#  15]+0.041*[#  19]+0.012*[#   2]
          +0.004*[#  14]+0.004*[#  18]+0.003*[#   7]+0.003*[#   8]
    |psi|^2 = 0.959
==== e(  16) =     2.80263 eV ==== 
     psi = 0.241*[#  10]+0.241*[#  11]+0.116*[#  15]+0.116*[#  19]+0.051*[#  14]
          +0.051*[#  18]+0.036*[#   6]+0.021*[#  16]+0.021*[#  17]+0.021*[#  20]
          +0.021*[#  21]
    |psi|^2 = 0.937
==== e(  17) =     3.47302 eV ==== 
     psi = 0.226*[#  10]+0.226*[#  11]+0.127*[#  16]+0.127*[#  17]+0.127*[#  20]
          +0.127*[#  21]+0.006*[#  15]+0.006*[#  19]+0.002*[#  14]+0.002*[#  18]
          
    |psi|^2 = 0.977

 k =   0.0250000000 -0.3608439184 -0.0876501565
==== e(   1) =   -61.39447 eV ==== 
     psi = 0.907*[#   1]+0.032*[#   7]+0.032*[#   8]+0.012*[#   2]+0.003*[#  15]
          +0.003*[#  19]+0.002*[#  16]+0.002*[#  17]+0.002*[#  20]+0.002*[#  21]
          +0.001*[#  12]+0.001*[#  13]
    |psi|^2 = 1.000
==== e(   2) =   -35.66385 eV ==== 
     psi = 0.485*[#   4]+0.485*[#   5]+0.007*[#   2]+0.005*[#  15]+0.005*[#  19]
          +0.002*[#   7]+0.002*[#   8]+0.002*[#  14]+0.002*[#  18]+0.001*[#   9]
          
    |psi|^2 = 1.000
==== e(   3) =   -35.56789 eV ==== 
     psi = 0.978*[#   3]+0.003*[#  16]+0.003*[#  17]+0.003*[#  20]+0.003*[#  21]
          +0.003*[#  14]+0.003*[#  18]+0.001*[#  15]+0.001*[#  19]
    |psi|^2 = 1.000
==== e(   4) =   -35.46226 eV ==== 
     psi = 0.487*[#   4]+0.487*[#   5]+0.009*[#   7]+0.009*[#   8]+0.002*[#  16]
          +0.002*[#  17]+0.002*[#  20]+0.002*[#  21]
    |psi|^2 = 1.000
==== e(   5) =   -13.51916 eV ==== 
     psi = 0.297*[#  18]+0.296*[#  14]+0.113*[#   7]+0.113*[#   8]+0.092*[#   2]
          +0.018*[#  12]+0.018*[#  13]+0.014*[#   1]+0.006*[#   4]+0.006*[#   5]
          +0.005*[#  15]+0.005*[#  19]+0.003*[#  16]+0.003*[#  17]+0.003*[#  20]
          +0.003*[#  21]+0.003*[#   9]
    |psi|^2 = 0.999
==== e(   6) =   -12.91300 eV ==== 
     psi = 0.362*[#  14]+0.362*[#  18]+0.127*[#   6]+0.064*[#  10]+0.064*[#  11]
          +0.007*[#   3]+0.003*[#  16]+0.003*[#  17]+0.003*[#  20]+0.003*[#  21]
          
    |psi|^2 = 0.999
==== e(   7) =    -5.84101 eV ==== 
     psi = 0.163*[#  12]+0.163*[#  13]+0.089*[#  15]+0.089*[#  19]+0.086*[#  16]
          +0.086*[#  17]+0.086*[#  20]+0.086*[#  21]+0.082*[#   9]+0.030*[#   2]
          +0.007*[#  14]+0.007*[#  18]+0.006*[#   7]+0.006*[#   8]+0.002*[#   1]
          +0.001*[#   4]+0.001*[#   5]
    |psi|^2 = 0.991
==== e(   8) =    -4.72984 eV ==== 
     psi = 0.135*[#  16]+0.135*[#  17]+0.136*[#  20]+0.136*[#  21]+0.129*[#  10]
          +0.129*[#  11]+0.059*[#   6]+0.053*[#  15]+0.053*[#  19]+0.012*[#  14]
          +0.012*[#  18]+0.003*[#   3]
    |psi|^2 = 0.991
==== e(   9) =    -4.57401 eV ==== 
     psi = 0.200*[#  15]+0.200*[#  19]+0.134*[#   9]+0.056*[#  14]+0.056*[#  18]
          +0.055*[#   2]+0.052*[#  16]+0.052*[#  17]+0.052*[#  20]+0.052*[#  21]
          +0.021*[#   7]+0.021*[#   8]+0.011*[#   1]+0.009*[#  12]+0.009*[#  13]
          +0.005*[#   4]+0.005*[#   5]
    |psi|^2 = 0.989
==== e(  10) =    -3.47714 eV ==== 
     psi = 0.260*[#  10]+0.260*[#  11]+0.114*[#  16]+0.114*[#  17]+0.114*[#  20]
          +0.114*[#  21]+0.007*[#  15]+0.007*[#  19]+0.002*[#   6]
    |psi|^2 = 0.992
==== e(  11) =    -2.19854 eV ==== 
     psi = 0.316*[#  15]+0.316*[#  19]+0.062*[#  16]+0.062*[#  17]+0.062*[#  20]
          +0.062*[#  21]+0.029*[#  10]+0.029*[#  11]+0.019*[#  14]+0.019*[#  18]
          +0.008*[#   3]+0.006*[#   6]
    |psi|^2 = 0.992
==== e(  12) =    -2.15803 eV ==== 
     psi = 0.163*[#  12]+0.163*[#  13]+0.147*[#  16]+0.147*[#  17]+0.147*[#  20]
          +0.147*[#  21]+0.024*[#   7]+0.024*[#   8]+0.020*[#   9]+0.003*[#  15]
          +0.003*[#  19]+0.002*[#   2]+0.001*[#   4]+0.001*[#   5]
    |psi|^2 = 0.992
==== e(  13) =    -1.64074 eV ==== 
     psi = 0.371*[#   9]+0.160*[#  12]+0.160*[#  13]+0.074*[#  15]+0.074*[#  19]
          +0.021*[#  16]+0.021*[#  17]+0.021*[#  20]+0.021*[#  21]+0.014*[#   7]
          +0.014*[#   8]+0.012*[#   2]+0.010*[#  14]+0.010*[#  18]+0.001*[#   4]
          +0.001*[#   5]
    |psi|^2 = 0.986
==== e(  14) =     1.48994 eV ==== 
     psi = 0.243*[#  12]+0.243*[#  13]+0.116*[#   9]+0.073*[#  16]+0.073*[#  17]
          +0.073*[#  20]+0.073*[#  21]+0.030*[#  15]+0.030*[#  19]+0.004*[#   2]
          +0.003*[#   7]+0.003*[#   8]+0.003*[#  14]+0.003*[#  18]
    |psi|^2 = 0.970
==== e(  15) =     1.62005 eV ==== 
     psi = 0.215*[#   9]+0.202*[#  12]+0.202*[#  13]+0.067*[#  16]+0.067*[#  17]
          +0.067*[#  20]+0.067*[#  21]+0.031*[#  15]+0.031*[#  19]+0.006*[#   2]
          +0.004*[#   7]+0.004*[#   8]+0.002*[#  14]+0.002*[#  18]
    |psi|^2 = 0.968
==== e(  16) =     2.52153 eV ==== 
     psi = 0.253*[#  10]+0.253*[#  11]+0.101*[#  15]+0.102*[#  19]+0.054*[#  14]
          +0.054*[#  18]+0.033*[#   6]+0.024*[#  16]+0.024*[#  17]+0.024*[#  20]
          +0.024*[#  21]
    |psi|^2 = 0.946
==== e(  17) =     3.34695 eV ==== 
     psi = 0.225*[#  10]+0.225*[#  11]+0.129*[#  16]+0.129*[#  17]+0.129*[#  20]
          +0.129*[#  21]+0.005*[#  15]+0.005*[#  19]+0.002*[#  14]+0.002*[#  18]
          
    |psi|^2 = 0.981

 k =   0.0250000000 -0.3031088915 -0.0876501565
==== e(   1) =   -61.40028 eV ==== 
     psi = 0.899*[#   1]+0.039*[#   7]+0.039*[#   8]+0.007*[#   2]+0.005*[#  15]
          +0.005*[#  19]+0.001*[#  16]+0.001*[#  17]+0.001*[#  20]+0.001*[#  21]
          
    |psi|^2 = 1.000
==== e(   2) =   -35.60724 eV ==== 
     psi = 0.487*[#   4]+0.487*[#   5]+0.009*[#   2]+0.004*[#  15]+0.004*[#  19]
          +0.002*[#   9]+0.001*[#  14]+0.001*[#  18]
    |psi|^2 = 1.000
==== e(   3) =   -35.57953 eV ==== 
     psi = 0.978*[#   3]+0.003*[#  14]+0.003*[#  18]+0.003*[#  16]+0.003*[#  17]
          +0.003*[#  20]+0.003*[#  21]+0.002*[#  15]+0.002*[#  19]
    |psi|^2 = 1.000
==== e(   4) =   -35.44884 eV ==== 
     psi = 0.486*[#   4]+0.486*[#   5]+0.010*[#   7]+0.010*[#   8]+0.002*[#  16]
          +0.002*[#  17]+0.002*[#  20]+0.002*[#  21]
    |psi|^2 = 1.000
==== e(   5) =   -13.81488 eV ==== 
     psi = 0.282*[#  18]+0.282*[#  14]+0.128*[#   2]+0.114*[#   7]+0.114*[#   8]
          +0.018*[#   1]+0.012*[#  12]+0.012*[#  13]+0.005*[#  15]+0.005*[#  19]
          +0.005*[#   4]+0.005*[#   5]+0.003*[#  16]+0.003*[#  17]+0.003*[#  20]
          +0.003*[#  21]+0.003*[#   9]
    |psi|^2 = 0.999
==== e(   6) =   -13.03224 eV ==== 
     psi = 0.349*[#  14]+0.348*[#  18]+0.184*[#   6]+0.048*[#  10]+0.048*[#  11]
          +0.009*[#   3]+0.003*[#  16]+0.003*[#  17]+0.003*[#  20]+0.003*[#  21]
          
    |psi|^2 = 0.999
==== e(   7) =    -5.69273 eV ==== 
     psi = 0.172*[#  15]+0.172*[#  19]+0.157*[#   9]+0.132*[#  12]+0.132*[#  13]
          +0.047*[#  16]+0.047*[#  17]+0.047*[#  20]+0.047*[#  21]+0.010*[#   2]
          +0.008*[#  14]+0.008*[#  18]+0.003*[#   1]+0.002*[#   4]+0.002*[#   5]
          
    |psi|^2 = 0.989
==== e(   8) =    -4.53482 eV ==== 
     psi = 0.121*[#  15]+0.121*[#  19]+0.086*[#   9]+0.076*[#   2]+0.074*[#  20]
          +0.074*[#  21]+0.073*[#  16]+0.073*[#  17]+0.064*[#  12]+0.064*[#  13]
          +0.052*[#  14]+0.052*[#  18]+0.021*[#   7]+0.021*[#   8]+0.012*[#   1]
          +0.003*[#   4]+0.003*[#   5]
    |psi|^2 = 0.990
==== e(   9) =    -4.35509 eV ==== 
     psi = 0.152*[#  10]+0.152*[#  11]+0.115*[#  16]+0.115*[#  17]+0.114*[#  20]
          +0.114*[#  21]+0.079*[#  15]+0.079*[#  19]+0.057*[#   6]+0.007*[#  14]
          +0.007*[#  18]+0.001*[#   3]
    |psi|^2 = 0.991
==== e(  10) =    -3.26094 eV ==== 
     psi = 0.263*[#  10]+0.263*[#  11]+0.112*[#  16]+0.112*[#  17]+0.112*[#  20]
          +0.112*[#  21]+0.007*[#  15]+0.007*[#  19]+0.001*[#   6]
    |psi|^2 = 0.992
==== e(  11) =    -2.40036 eV ==== 
     psi = 0.216*[#  12]+0.216*[#  13]+0.128*[#  16]+0.128*[#  17]+0.128*[#  20]
          +0.128*[#  21]+0.019*[#   7]+0.019*[#   8]+0.006*[#   9]+0.001*[#   4]
          +0.001*[#   5]
    |psi|^2 = 0.992
==== e(  12) =    -2.00972 eV ==== 
     psi = 0.311*[#  15]+0.311*[#  19]+0.075*[#  16]+0.075*[#  17]+0.075*[#  20]
          +0.075*[#  21]+0.015*[#  14]+0.015*[#  18]+0.013*[#  10]+0.013*[#  11]
          +0.009*[#   3]+0.004*[#   6]
    |psi|^2 = 0.990
==== e(  13) =    -1.48523 eV ==== 
     psi = 0.431*[#   9]+0.133*[#  12]+0.133*[#  13]+0.073*[#  15]+0.073*[#  19]
          +0.023*[#  16]+0.023*[#  17]+0.023*[#  20]+0.023*[#  21]+0.012*[#  14]
          +0.012*[#  18]+0.010*[#   2]+0.009*[#   7]+0.009*[#   8]
    |psi|^2 = 0.989
==== e(  14) =     1.44789 eV ==== 
     psi = 0.214*[#   9]+0.152*[#  12]+0.152*[#  13]+0.072*[#  16]+0.072*[#  17]
          +0.072*[#  20]+0.072*[#  21]+0.060*[#  15]+0.060*[#  19]+0.007*[#  14]
          +0.007*[#  18]+0.005*[#   2]+0.003*[#   7]+0.003*[#   8]
    |psi|^2 = 0.954
==== e(  15) =     1.65616 eV ==== 
     psi = 0.252*[#  12]+0.252*[#  13]+0.103*[#  16]+0.103*[#  17]+0.103*[#  20]
          +0.103*[#  21]+0.038*[#   9]+0.006*[#   7]+0.006*[#   8]+0.006*[#  15]
          +0.006*[#  19]+0.002*[#   2]
    |psi|^2 = 0.981
==== e(  16) =     2.22233 eV ==== 
     psi = 0.264*[#  10]+0.264*[#  11]+0.081*[#  15]+0.081*[#  19]+0.055*[#  14]
          +0.055*[#  18]+0.031*[#  16]+0.031*[#  17]+0.031*[#  20]+0.031*[#  21]
          +0.029*[#   6]
    |psi|^2 = 0.953
==== e(  17) =     3.16391 eV ==== 
     psi = 0.222*[#  10]+0.222*[#  11]+0.132*[#  16]+0.132*[#  17]+0.132*[#  20]
          +0.132*[#  21]+0.003*[#  15]+0.003*[#  19]+0.001*[#  14]+0.001*[#  18]
          
    |psi|^2 = 0.982

 k =   0.0250000000 -0.2453738645 -0.0876501565
==== e(   1) =   -61.40623 eV ==== 
     psi = 0.899*[#   1]+0.041*[#   7]+0.041*[#   8]+0.006*[#  15]+0.006*[#  19]
          +0.002*[#   2]+0.001*[#  16]+0.001*[#  17]+0.001*[#  20]+0.001*[#  21]
          
    |psi|^2 = 1.000
==== e(   2) =   -35.59143 eV ==== 
     psi = 0.977*[#   3]+0.004*[#  14]+0.004*[#  18]+0.003*[#  15]+0.003*[#  19]
          +0.002*[#   6]+0.002*[#  16]+0.002*[#  17]+0.002*[#  20]+0.002*[#  21]
          
    |psi|^2 = 1.000
==== e(   3) =   -35.54866 eV ==== 
     psi = 0.489*[#   4]+0.489*[#   5]+0.011*[#   2]+0.003*[#  15]+0.003*[#  19]
          +0.001*[#   9]+0.001*[#  14]+0.001*[#  18]
    |psi|^2 = 1.000
==== e(   4) =   -35.43504 eV ==== 
     psi = 0.485*[#   4]+0.485*[#   5]+0.012*[#   7]+0.012*[#   8]+0.001*[#  16]
          +0.001*[#  17]+0.001*[#  20]+0.001*[#  21]
    |psi|^2 = 1.000
==== e(   5) =   -14.09648 eV ==== 
     psi = 0.273*[#  18]+0.273*[#  14]+0.173*[#   2]+0.106*[#   7]+0.106*[#   8]
          +0.021*[#   1]+0.007*[#  12]+0.007*[#  13]+0.005*[#  15]+0.005*[#  19]
          +0.003*[#   4]+0.003*[#   5]+0.003*[#  16]+0.003*[#  17]+0.003*[#  20]
          +0.003*[#  21]+0.003*[#   9]
    |psi|^2 = 0.999
==== e(   6) =   -13.14731 eV ==== 
     psi = 0.335*[#  14]+0.335*[#  18]+0.241*[#   6]+0.033*[#  10]+0.033*[#  11]
          +0.012*[#   3]+0.002*[#  16]+0.002*[#  17]+0.002*[#  20]+0.002*[#  21]
          
    |psi|^2 = 0.999
==== e(   7) =    -5.73710 eV ==== 
     psi = 0.244*[#  15]+0.244*[#  19]+0.239*[#   9]+0.063*[#  12]+0.063*[#  13]
          +0.018*[#  14]+0.018*[#  16]+0.018*[#  17]+0.018*[#  18]+0.018*[#  20]
          +0.018*[#  21]+0.009*[#   2]+0.008*[#   1]+0.003*[#   4]+0.003*[#   5]
          +0.001*[#   7]+0.001*[#   8]
    |psi|^2 = 0.987
==== e(   8) =    -4.34966 eV ==== 
     psi = 0.169*[#  12]+0.169*[#  13]+0.088*[#  20]+0.088*[#  21]+0.088*[#  16]
          +0.088*[#  17]+0.070*[#   2]+0.043*[#  15]+0.043*[#  19]+0.037*[#  14]
          +0.037*[#  18]+0.032*[#   9]+0.014*[#   7]+0.014*[#   8]+0.008*[#   1]
          +0.001*[#   4]+0.001*[#   5]
    |psi|^2 = 0.991
==== e(   9) =    -3.96126 eV ==== 
     psi = 0.169*[#  10]+0.169*[#  11]+0.113*[#  15]+0.113*[#  19]+0.092*[#  16]
          +0.092*[#  17]+0.092*[#  20]+0.092*[#  21]+0.051*[#   6]+0.003*[#  14]
          +0.003*[#  18]
    |psi|^2 = 0.991
==== e(  10) =    -3.00919 eV ==== 
     psi = 0.267*[#  10]+0.267*[#  11]+0.111*[#  20]+0.111*[#  21]+0.111*[#  16]
          +0.111*[#  17]+0.006*[#  15]+0.006*[#  19]
    |psi|^2 = 0.991
==== e(  11) =    -2.66046 eV ==== 
     psi = 0.260*[#  12]+0.260*[#  13]+0.110*[#  16]+0.110*[#  17]+0.110*[#  20]
          +0.110*[#  21]+0.014*[#   7]+0.014*[#   8]+0.002*[#   9]
    |psi|^2 = 0.992
==== e(  12) =    -1.82745 eV ==== 
     psi = 0.305*[#  15]+0.305*[#  19]+0.084*[#  16]+0.084*[#  17]+0.084*[#  20]
          +0.084*[#  21]+0.009*[#   3]+0.009*[#  14]+0.009*[#  18]+0.006*[#  10]
          +0.006*[#  11]+0.003*[#   6]
    |psi|^2 = 0.987
==== e(  13) =    -1.22481 eV ==== 
     psi = 0.490*[#   9]+0.092*[#  15]+0.092*[#  19]+0.088*[#  12]+0.088*[#  13]
          +0.022*[#  16]+0.022*[#  17]+0.022*[#  20]+0.022*[#  21]+0.013*[#  14]
          +0.013*[#  18]+0.008*[#   2]+0.008*[#   7]+0.008*[#   8]
    |psi|^2 = 0.990
==== e(  14) =     1.46178 eV ==== 
     psi = 0.155*[#  12]+0.155*[#  13]+0.153*[#   9]+0.087*[#  16]+0.087*[#  17]
          +0.087*[#  20]+0.087*[#  21]+0.056*[#  15]+0.056*[#  19]+0.010*[#  14]
          +0.010*[#  18]+0.004*[#   2]+0.003*[#   7]+0.003*[#   8]
    |psi|^2 = 0.952
==== e(  15) =     1.78577 eV ==== 
     psi = 0.224*[#  12]+0.224*[#  13]+0.127*[#  16]+0.127*[#  17]+0.127*[#  20]
          +0.127*[#  21]+0.009*[#   9]+0.007*[#   7]+0.007*[#   8]+0.001*[#   2]
          +0.001*[#  15]+0.001*[#  19]
    |psi|^2 = 0.983
==== e(  16) =     1.97143 eV ==== 
     psi = 0.271*[#  10]+0.271*[#  11]+0.054*[#  15]+0.054*[#  19]+0.053*[#  14]
          +0.053*[#  18]+0.045*[#  16]+0.045*[#  17]+0.045*[#  20]+0.045*[#  21]
          +0.026*[#   6]
    |psi|^2 = 0.959
==== e(  17) =     2.93120 eV ==== 
     psi = 0.219*[#  10]+0.219*[#  11]+0.134*[#  16]+0.134*[#  17]+0.134*[#  20]
          +0.134*[#  21]+0.002*[#  15]+0.002*[#  19]
    |psi|^2 = 0.981

 k =   0.0250000000 -0.1876388376 -0.0876501565
==== e(   1) =   -61.41174 eV ==== 
     psi = 0.907*[#   1]+0.037*[#   7]+0.037*[#   8]+0.007*[#  15]+0.007*[#  19]
          +0.001*[#   9]
    |psi|^2 = 1.000
==== e(   2) =   -35.60243 eV ==== 
     psi = 0.976*[#   3]+0.004*[#   6]+0.004*[#  14]+0.004*[#  18]+0.003*[#  15]
          +0.003*[#  19]+0.001*[#  16]+0.001*[#  17]+0.001*[#  20]+0.001*[#  21]
          
    |psi|^2 = 1.000
==== e(   3) =   -35.49389 eV ==== 
     psi = 0.489*[#   4]+0.489*[#   5]+0.011*[#   2]+0.002*[#  15]+0.002*[#  19]
          +0.001*[#   9]+0.001*[#   7]+0.001*[#   8]
    |psi|^2 = 1.000
==== e(   4) =   -35.42221 eV ==== 
     psi = 0.484*[#   4]+0.484*[#   5]+0.013*[#   7]+0.013*[#   8]+0.001*[#  16]
          +0.001*[#  17]+0.001*[#  20]+0.001*[#  21]
    |psi|^2 = 1.000
==== e(   5) =   -14.34175 eV ==== 
     psi = 0.271*[#  14]+0.271*[#  18]+0.228*[#   2]+0.086*[#   7]+0.086*[#   8]
          +0.022*[#   1]+0.006*[#  15]+0.006*[#  19]+0.004*[#  12]+0.004*[#  13]
          +0.002*[#  16]+0.002*[#  17]+0.002*[#  20]+0.002*[#  21]+0.002*[#   9]
          +0.002*[#   4]+0.002*[#   5]
    |psi|^2 = 0.999
==== e(   6) =   -13.24830 eV ==== 
     psi = 0.323*[#  14]+0.322*[#  18]+0.292*[#   6]+0.020*[#  10]+0.020*[#  11]
          +0.015*[#   3]+0.001*[#  16]+0.001*[#  17]+0.001*[#  20]+0.001*[#  21]
          
    |psi|^2 = 0.998
==== e(   7) =    -5.91236 eV ==== 
     psi = 0.288*[#   9]+0.267*[#  15]+0.267*[#  19]+0.026*[#  14]+0.026*[#  18]
          +0.023*[#  12]+0.023*[#  13]+0.018*[#   2]+0.013*[#   1]+0.006*[#  16]
          +0.006*[#  17]+0.006*[#  20]+0.006*[#  21]+0.002*[#   4]+0.002*[#   5]
          +0.002*[#   7]+0.002*[#   8]
    |psi|^2 = 0.987
==== e(   8) =    -4.03967 eV ==== 
     psi = 0.246*[#  12]+0.246*[#  13]+0.088*[#  16]+0.088*[#  17]+0.088*[#  20]
          +0.088*[#  21]+0.050*[#   2]+0.022*[#  14]+0.022*[#  18]+0.012*[#  15]
          +0.012*[#  19]+0.009*[#   9]+0.007*[#   7]+0.007*[#   8]+0.004*[#   1]
          
    |psi|^2 = 0.991
==== e(   9) =    -3.56692 eV ==== 
     psi = 0.177*[#  10]+0.177*[#  11]+0.155*[#  15]+0.155*[#  19]+0.071*[#  16]
          +0.071*[#  17]+0.071*[#  20]+0.071*[#  21]+0.042*[#   6]+0.001*[#  14]
          +0.001*[#  18]
    |psi|^2 = 0.992
==== e(  10) =    -2.90253 eV ==== 
     psi = 0.293*[#  12]+0.293*[#  13]+0.097*[#  20]+0.097*[#  21]+0.096*[#  16]
          +0.096*[#  17]+0.009*[#   7]+0.009*[#   8]
    |psi|^2 = 0.991
==== e(  11) =    -2.74048 eV ==== 
     psi = 0.272*[#  10]+0.272*[#  11]+0.110*[#  16]+0.110*[#  17]+0.109*[#  20]
          +0.109*[#  21]+0.003*[#  15]+0.003*[#  19]
    |psi|^2 = 0.990
==== e(  12) =    -1.71773 eV ==== 
     psi = 0.294*[#  15]+0.293*[#  19]+0.085*[#  16]+0.085*[#  17]+0.085*[#  20]
          +0.085*[#  21]+0.021*[#  10]+0.021*[#  11]+0.008*[#   3]+0.003*[#  14]
          +0.003*[#  18]+0.001*[#   6]
    |psi|^2 = 0.985
==== e(  13) =    -0.97985 eV ==== 
     psi = 0.546*[#   9]+0.122*[#  15]+0.122*[#  19]+0.045*[#  12]+0.045*[#  13]
          +0.015*[#  16]+0.015*[#  17]+0.015*[#  20]+0.015*[#  21]+0.011*[#  14]
          +0.011*[#  18]+0.009*[#   7]+0.009*[#   8]+0.006*[#   2]
    |psi|^2 = 0.987
==== e(  14) =     1.60187 eV ==== 
     psi = 0.166*[#  12]+0.166*[#  13]+0.109*[#  16]+0.109*[#  17]+0.109*[#  20]
          +0.109*[#  21]+0.078*[#   9]+0.040*[#  15]+0.040*[#  19]+0.012*[#  14]
          +0.012*[#  18]+0.006*[#   2]+0.001*[#   7]+0.001*[#   8]
    |psi|^2 = 0.958
==== e(  15) =     1.83984 eV ==== 
     psi = 0.263*[#  10]+0.263*[#  11]+0.068*[#  20]+0.068*[#  21]+0.068*[#  16]
          +0.068*[#  17]+0.045*[#  14]+0.045*[#  18]+0.027*[#  15]+0.027*[#  19]
          +0.022*[#   6]
    |psi|^2 = 0.965
==== e(  16) =     1.95338 eV ==== 
     psi = 0.196*[#  12]+0.196*[#  13]+0.143*[#  16]+0.143*[#  17]+0.143*[#  20]
          +0.143*[#  21]+0.008*[#   7]+0.008*[#   8]+0.003*[#   9]+0.001*[#   2]
          
    |psi|^2 = 0.985
==== e(  17) =     2.66841 eV ==== 
     psi = 0.214*[#  10]+0.214*[#  11]+0.137*[#  16]+0.137*[#  17]+0.137*[#  20]
          +0.137*[#  21]+0.001*[#  15]+0.001*[#  19]
    |psi|^2 = 0.978

 k =   0.0250000000 -0.1299038106 -0.0876501565
==== e(   1) =   -61.41627 eV ==== 
     psi = 0.923*[#   1]+0.027*[#   7]+0.027*[#   8]+0.008*[#  15]+0.008*[#  19]
          +0.002*[#   2]+0.002*[#   9]
    |psi|^2 = 1.000
==== e(   2) =   -35.61148 eV ==== 
     psi = 0.974*[#   3]+0.007*[#   6]+0.004*[#  14]+0.004*[#  18]+0.004*[#  15]
          +0.004*[#  19]
    |psi|^2 = 1.000
==== e(   3) =   -35.44845 eV ==== 
     psi = 0.488*[#   4]+0.488*[#   5]+0.009*[#   2]+0.005*[#   7]+0.005*[#   8]
          
    |psi|^2 = 1.000
==== e(   4) =   -35.41162 eV ==== 
     psi = 0.483*[#   4]+0.483*[#   5]+0.015*[#   7]+0.015*[#   8]
    |psi|^2 = 1.000
==== e(   5) =   -14.53419 eV ==== 
     psi = 0.293*[#   2]+0.273*[#  14]+0.273*[#  18]+0.056*[#   7]+0.056*[#   8]
          +0.022*[#   1]+0.006*[#  15]+0.006*[#  19]+0.002*[#   9]+0.002*[#  12]
          +0.002*[#  13]+0.002*[#  16]+0.002*[#  17]+0.002*[#  20]+0.002*[#  21]
          
    |psi|^2 = 0.999
==== e(   6) =   -13.32781 eV ==== 
     psi = 0.332*[#   6]+0.313*[#  14]+0.313*[#  18]+0.017*[#   3]+0.010*[#  10]
          +0.010*[#  11]
    |psi|^2 = 0.998
==== e(   7) =    -6.10246 eV ==== 
     psi = 0.315*[#   9]+0.269*[#  15]+0.269*[#  19]+0.031*[#  14]+0.031*[#  18]
          +0.025*[#   2]+0.017*[#   1]+0.008*[#  12]+0.008*[#  13]+0.002*[#  16]
          +0.002*[#  17]+0.002*[#  20]+0.002*[#  21]+0.001*[#   7]+0.001*[#   8]
          +0.001*[#   4]+0.001*[#   5]
    |psi|^2 = 0.986
==== e(   8) =    -3.71118 eV ==== 
     psi = 0.293*[#  12]+0.293*[#  13]+0.084*[#  16]+0.084*[#  17]+0.084*[#  20]
          +0.084*[#  21]+0.028*[#   2]+0.011*[#  14]+0.011*[#  18]+0.003*[#   7]
          +0.003*[#   8]+0.003*[#  15]+0.003*[#  19]+0.002*[#   9]+0.002*[#   1]
          
    |psi|^2 = 0.991
==== e(   9) =    -3.18180 eV ==== 
     psi = 0.203*[#  15]+0.203*[#  19]+0.168*[#  10]+0.168*[#  11]+0.054*[#  16]
          +0.054*[#  17]+0.054*[#  20]+0.054*[#  21]+0.033*[#   6]+0.001*[#   3]
          
    |psi|^2 = 0.993
==== e(  10) =    -3.09962 eV ==== 
     psi = 0.315*[#  12]+0.315*[#  13]+0.087*[#  16]+0.087*[#  17]+0.087*[#  20]
          +0.087*[#  21]+0.005*[#   7]+0.005*[#   8]
    |psi|^2 = 0.991
==== e(  11) =    -2.48593 eV ==== 
     psi = 0.278*[#  10]+0.278*[#  11]+0.107*[#  16]+0.107*[#  17]+0.107*[#  20]
          +0.107*[#  21]+0.001*[#  15]+0.001*[#  19]
    |psi|^2 = 0.989
==== e(  12) =    -1.74246 eV ==== 
     psi = 0.266*[#  15]+0.266*[#  19]+0.079*[#  16]+0.079*[#  17]+0.079*[#  20]
          +0.079*[#  21]+0.065*[#  10]+0.065*[#  11]+0.007*[#   3]
    |psi|^2 = 0.985
==== e(  13) =    -0.82013 eV ==== 
     psi = 0.581*[#   9]+0.150*[#  15]+0.150*[#  19]+0.017*[#  12]+0.017*[#  13]
          +0.009*[#  14]+0.009*[#  18]+0.008*[#   7]+0.008*[#   8]+0.007*[#  16]
          +0.007*[#  17]+0.007*[#  20]+0.007*[#  21]+0.002*[#   2]
    |psi|^2 = 0.981
==== e(  14) =     1.85798 eV ==== 
     psi = 0.168*[#  12]+0.168*[#  13]+0.137*[#  16]+0.137*[#  17]+0.128*[#  20]
          +0.128*[#  21]+0.028*[#   9]+0.021*[#  15]+0.020*[#  19]+0.012*[#  14]
          +0.010*[#  18]+0.009*[#   2]
    |psi|^2 = 0.969
==== e(  15) =     1.86208 eV ==== 
     psi = 0.240*[#  10]+0.240*[#  11]+0.103*[#  20]+0.103*[#  21]+0.094*[#  16]
          +0.094*[#  17]+0.031*[#  18]+0.030*[#  14]+0.016*[#   6]+0.010*[#  19]
          +0.009*[#  15]
    |psi|^2 = 0.969
==== e(  16) =     2.12292 eV ==== 
     psi = 0.175*[#  12]+0.175*[#  13]+0.155*[#  16]+0.155*[#  17]+0.154*[#  20]
          +0.154*[#  21]+0.008*[#   7]+0.008*[#   8]
    |psi|^2 = 0.987
==== e(  17) =     2.41049 eV ==== 
     psi = 0.208*[#  10]+0.208*[#  11]+0.140*[#  20]+0.140*[#  21]+0.139*[#  16]
          +0.139*[#  17]
    |psi|^2 = 0.976

 k =   0.0250000000 -0.0721687837 -0.0876501565
==== e(   1) =   -61.41938 eV ==== 
     psi = 0.943*[#   1]+0.012*[#   7]+0.012*[#   8]+0.009*[#   2]+0.009*[#  15]
          +0.009*[#  19]+0.003*[#   9]+0.001*[#  14]+0.001*[#  18]
    |psi|^2 = 1.000
==== e(   2) =   -35.61768 eV ==== 
     psi = 0.973*[#   3]+0.009*[#   6]+0.004*[#  14]+0.004*[#  18]+0.004*[#  15]
          +0.004*[#  19]
    |psi|^2 = 1.000
==== e(   3) =   -35.41703 eV ==== 
     psi = 0.485*[#   4]+0.485*[#   5]+0.011*[#   7]+0.011*[#   8]+0.004*[#   2]
          
    |psi|^2 = 1.000
==== e(   4) =   -35.40434 eV ==== 
     psi = 0.483*[#   4]+0.483*[#   5]+0.015*[#   7]+0.015*[#   8]
    |psi|^2 = 1.000
==== e(   5) =   -14.66212 eV ==== 
[...]
          +0.011*[#   6]+0.004*[#   3]
    |psi|^2 = 0.995
==== e(  12) =    -2.31421 eV ==== 
     psi = 0.155*[#  16]+0.155*[#  17]+0.155*[#  20]+0.155*[#  21]+0.078*[#   9]
          +0.069*[#  15]+0.068*[#  19]+0.046*[#   7]+0.046*[#   8]+0.012*[#  14]
          +0.012*[#  18]+0.012*[#  12]+0.012*[#  13]+0.011*[#   2]+0.004*[#   4]
          +0.004*[#   5]
    |psi|^2 = 0.991
==== e(  13) =    -1.13225 eV ==== 
     psi = 0.181*[#  12]+0.181*[#  13]+0.181*[#   9]+0.077*[#  15]+0.077*[#  19]
          +0.057*[#  16]+0.057*[#  17]+0.057*[#  20]+0.057*[#  21]+0.026*[#   7]
          +0.026*[#   8]+0.003*[#   2]+0.002*[#  14]+0.002*[#  18]+0.002*[#   4]
          +0.002*[#   5]
    |psi|^2 = 0.987
==== e(  14) =     1.55490 eV ==== 
     psi = 0.286*[#  12]+0.286*[#  13]+0.266*[#   9]+0.028*[#  16]+0.028*[#  17]
          +0.028*[#  20]+0.028*[#  21]+0.015*[#  15]+0.015*[#  19]+0.009*[#   2]
          +0.001*[#   7]+0.001*[#   8]
    |psi|^2 = 0.992
==== e(  15) =     2.10659 eV ==== 
     psi = 0.270*[#   9]+0.243*[#  12]+0.243*[#  13]+0.037*[#  15]+0.037*[#  19]
          +0.027*[#  16]+0.027*[#  17]+0.027*[#  20]+0.027*[#  21]+0.011*[#   2]
          +0.008*[#   7]+0.008*[#   8]+0.005*[#  14]+0.005*[#  18]
    |psi|^2 = 0.976
==== e(  16) =     3.12919 eV ==== 
     psi = 0.236*[#  10]+0.236*[#  11]+0.089*[#  16]+0.089*[#  17]+0.089*[#  20]
          +0.089*[#  21]+0.030*[#  15]+0.030*[#  19]+0.015*[#  14]+0.015*[#  18]
          +0.014*[#   6]
    |psi|^2 = 0.931
==== e(  17) =     3.43131 eV ==== 
     psi = 0.219*[#  10]+0.219*[#  11]+0.110*[#  15]+0.110*[#  19]+0.044*[#  16]
          +0.044*[#  17]+0.044*[#  20]+0.044*[#  21]+0.036*[#  14]+0.036*[#  18]
          +0.008*[#   6]
    |psi|^2 = 0.914

 k =   0.4250000000 -0.3031088912 -0.0876501565
==== e(   1) =   -61.38340 eV ==== 
     psi = 0.950*[#   1]+0.018*[#   2]+0.004*[#   7]+0.004*[#   8]+0.004*[#  16]
          +0.004*[#  17]+0.004*[#  20]+0.004*[#  21]+0.003*[#  12]+0.003*[#  13]
          +0.001*[#  15]+0.001*[#  19]
    |psi|^2 = 1.000
==== e(   2) =   -35.76633 eV ==== 
     psi = 0.483*[#   4]+0.483*[#   5]+0.007*[#  15]+0.007*[#  19]+0.005*[#   7]
          +0.005*[#   8]+0.003*[#  14]+0.003*[#  18]
    |psi|^2 = 1.000
==== e(   3) =   -35.54572 eV ==== 
     psi = 0.974*[#   3]+0.006*[#   6]+0.004*[#  16]+0.004*[#  17]+0.004*[#  20]
          +0.004*[#  21]+0.001*[#  14]+0.001*[#  18]
    |psi|^2 = 1.000
==== e(   4) =   -35.49155 eV ==== 
     psi = 0.490*[#   4]+0.490*[#   5]+0.006*[#   7]+0.006*[#   8]+0.002*[#  16]
          +0.002*[#  17]+0.002*[#  20]+0.002*[#  21]
    |psi|^2 = 1.000
==== e(   5) =   -12.87821 eV ==== 
     psi = 0.347*[#  18]+0.346*[#  14]+0.081*[#   7]+0.081*[#   8]+0.038*[#  12]
          +0.038*[#  13]+0.031*[#   2]+0.007*[#   4]+0.007*[#   5]+0.007*[#  15]
          +0.007*[#  19]+0.003*[#   1]+0.002*[#   9]
    |psi|^2 = 0.999
==== e(   6) =   -12.66142 eV ==== 
     psi = 0.390*[#  14]+0.389*[#  18]+0.096*[#  10]+0.096*[#  11]+0.023*[#   6]
          +0.001*[#   3]+0.001*[#  15]+0.001*[#  19]
    |psi|^2 = 0.999
==== e(   7) =    -6.38828 eV ==== 
     psi = 0.148*[#  16]+0.148*[#  17]+0.148*[#  20]+0.148*[#  21]+0.083*[#  12]
          +0.083*[#  13]+0.076*[#   2]+0.033*[#   9]+0.033*[#   7]+0.033*[#   8]
          +0.013*[#  15]+0.013*[#  19]+0.009*[#  14]+0.009*[#  18]+0.008*[#   1]
          +0.002*[#   4]+0.002*[#   5]
    |psi|^2 = 0.989
==== e(   8) =    -5.45398 eV ==== 
     psi = 0.168*[#  16]+0.168*[#  17]+0.168*[#  20]+0.168*[#  21]+0.094*[#  10]
          +0.094*[#  11]+0.054*[#   6]+0.019*[#  14]+0.019*[#  18]+0.017*[#  15]
          +0.017*[#  19]+0.007*[#   3]
    |psi|^2 = 0.992
==== e(   9) =    -4.70636 eV ==== 
     psi = 0.217*[#  15]+0.217*[#  19]+0.157*[#   9]+0.108*[#  12]+0.108*[#  13]
          +0.036*[#  14]+0.036*[#  18]+0.022*[#  16]+0.022*[#  17]+0.022*[#  20]
          +0.022*[#  21]+0.007*[#   2]+0.004*[#   4]+0.004*[#   5]+0.004*[#   7]
          +0.004*[#   8]+0.001*[#   1]
    |psi|^2 = 0.990
==== e(  10) =    -3.83639 eV ==== 
     psi = 0.243*[#  10]+0.243*[#  11]+0.119*[#  16]+0.119*[#  17]+0.119*[#  20]
          +0.119*[#  21]+0.010*[#  15]+0.010*[#  19]+0.007*[#   6]+0.001*[#  14]
          +0.001*[#  18]
    |psi|^2 = 0.993
==== e(  11) =    -2.50255 eV ==== 
     psi = 0.318*[#  15]+0.318*[#  19]+0.065*[#  10]+0.065*[#  11]+0.041*[#  16]
          +0.041*[#  17]+0.041*[#  20]+0.041*[#  21]+0.025*[#  14]+0.025*[#  18]
          +0.008*[#   6]+0.004*[#   3]
    |psi|^2 = 0.994
==== e(  12) =    -1.89659 eV ==== 
     psi = 0.161*[#  16]+0.161*[#  17]+0.161*[#  20]+0.161*[#  21]+0.074*[#   9]
          +0.050*[#  15]+0.050*[#  19]+0.041*[#   7]+0.041*[#   8]+0.034*[#  12]
          +0.034*[#  13]+0.006*[#  14]+0.006*[#  18]+0.005*[#   2]+0.003*[#   4]
          +0.003*[#   5]
    |psi|^2 = 0.991
==== e(  13) =    -1.28651 eV ==== 
     psi = 0.220*[#   9]+0.131*[#  12]+0.131*[#  13]+0.109*[#  15]+0.109*[#  19]
          +0.049*[#  16]+0.049*[#  17]+0.049*[#  20]+0.049*[#  21]+0.036*[#   7]
          +0.036*[#   8]+0.005*[#  14]+0.005*[#  18]+0.003*[#   4]+0.003*[#   5]
          +0.002*[#   2]
    |psi|^2 = 0.985
==== e(  14) =     1.54403 eV ==== 
     psi = 0.404*[#  12]+0.404*[#  13]+0.059*[#   9]+0.026*[#  16]+0.026*[#  17]
          +0.026*[#  20]+0.026*[#  21]+0.009*[#  15]+0.009*[#  19]+0.002*[#   7]
          +0.002*[#   8]+0.001*[#   2]
    |psi|^2 = 0.992
==== e(  15) =     1.99844 eV ==== 
     psi = 0.427*[#   9]+0.157*[#  12]+0.157*[#  13]+0.040*[#  16]+0.040*[#  17]
          +0.040*[#  20]+0.040*[#  21]+0.020*[#  15]+0.020*[#  19]+0.014*[#   2]
          +0.005*[#   7]+0.005*[#   8]+0.004*[#  14]+0.004*[#  18]
    |psi|^2 = 0.972
==== e(  16) =     3.13018 eV ==== 
     psi = 0.229*[#  10]+0.229*[#  11]+0.118*[#  15]+0.118*[#  19]+0.046*[#  14]
          +0.046*[#  18]+0.029*[#   6]+0.024*[#  16]+0.024*[#  17]+0.024*[#  20]
          +0.024*[#  21]
    |psi|^2 = 0.914
==== e(  17) =     3.51597 eV ==== 
     psi = 0.222*[#  10]+0.222*[#  11]+0.118*[#  16]+0.118*[#  17]+0.118*[#  20]
          +0.118*[#  21]+0.015*[#  15]+0.015*[#  19]+0.005*[#  14]+0.005*[#  18]
          
    |psi|^2 = 0.956

 k =   0.4250000000 -0.2453738643 -0.0876501565
==== e(   1) =   -61.38480 eV ==== 
     psi = 0.943*[#   1]+0.018*[#   2]+0.009*[#   7]+0.009*[#   8]+0.003*[#  16]
          +0.003*[#  17]+0.003*[#  20]+0.003*[#  21]+0.003*[#  12]+0.003*[#  13]
          +0.001*[#  15]+0.001*[#  19]
    |psi|^2 = 1.000
==== e(   2) =   -35.75794 eV ==== 
     psi = 0.483*[#   4]+0.483*[#   5]+0.007*[#  15]+0.007*[#  19]+0.005*[#   7]
          +0.005*[#   8]+0.003*[#  14]+0.003*[#  18]+0.002*[#   2]
    |psi|^2 = 1.000
==== e(   3) =   -35.54852 eV ==== 
     psi = 0.974*[#   3]+0.005*[#   6]+0.004*[#  16]+0.004*[#  17]+0.004*[#  20]
          +0.004*[#  21]+0.001*[#  14]+0.001*[#  18]
    |psi|^2 = 1.000
==== e(   4) =   -35.48318 eV ==== 
     psi = 0.490*[#   4]+0.490*[#   5]+0.006*[#   7]+0.006*[#   8]+0.002*[#  16]
          +0.002*[#  17]+0.002*[#  20]+0.002*[#  21]
    |psi|^2 = 1.000
==== e(   5) =   -12.96453 eV ==== 
     psi = 0.339*[#  18]+0.338*[#  14]+0.087*[#   7]+0.087*[#   8]+0.038*[#   2]
          +0.035*[#  12]+0.035*[#  13]+0.007*[#   4]+0.007*[#   5]+0.007*[#  15]
          +0.007*[#  19]+0.005*[#   1]+0.002*[#   9]+0.001*[#  16]+0.001*[#  17]
          +0.001*[#  20]+0.001*[#  21]
    |psi|^2 = 0.999
==== e(   6) =   -12.69701 eV ==== 
     psi = 0.386*[#  14]+0.386*[#  18]+0.092*[#  10]+0.092*[#  11]+0.034*[#   6]
          +0.002*[#   3]+0.001*[#  16]+0.001*[#  17]+0.001*[#  20]+0.001*[#  21]
          +0.001*[#  15]+0.001*[#  19]
    |psi|^2 = 0.999
==== e(   7) =    -6.35075 eV ==== 
     psi = 0.141*[#  16]+0.141*[#  17]+0.141*[#  20]+0.141*[#  21]+0.099*[#  12]
          +0.099*[#  13]+0.072*[#   2]+0.033*[#   9]+0.029*[#   7]+0.029*[#   8]
          +0.019*[#  15]+0.019*[#  19]+0.010*[#  14]+0.010*[#  18]+0.008*[#   1]
          +0.002*[#   4]+0.002*[#   5]
    |psi|^2 = 0.990
==== e(   8) =    -5.35189 eV ==== 
     psi = 0.167*[#  16]+0.167*[#  17]+0.167*[#  20]+0.167*[#  21]+0.086*[#  10]
          +0.086*[#  11]+0.060*[#   6]+0.022*[#  15]+0.022*[#  19]+0.020*[#  14]
          +0.020*[#  18]+0.007*[#   3]
    |psi|^2 = 0.992
==== e(   9) =    -4.68791 eV ==== 
     psi = 0.220*[#  15]+0.220*[#  19]+0.161*[#   9]+0.088*[#  12]+0.088*[#  13]
          +0.038*[#  14]+0.038*[#  18]+0.025*[#  16]+0.025*[#  17]+0.025*[#  20]
          +0.025*[#  21]+0.010*[#   2]+0.006*[#   7]+0.006*[#   8]+0.004*[#   4]
          +0.004*[#   5]+0.003*[#   1]
    |psi|^2 = 0.989
==== e(  10) =    -3.78432 eV ==== 
     psi = 0.261*[#  10]+0.261*[#  11]+0.118*[#  16]+0.118*[#  17]+0.118*[#  20]
          +0.118*[#  21]
    |psi|^2 = 0.993
==== e(  11) =    -2.48957 eV ==== 
     psi = 0.326*[#  15]+0.326*[#  19]+0.060*[#  10]+0.060*[#  11]+0.040*[#  16]
          +0.040*[#  17]+0.040*[#  20]+0.040*[#  21]+0.025*[#  14]+0.025*[#  18]
          +0.007*[#   6]+0.004*[#   3]
    |psi|^2 = 0.994
==== e(  12) =    -1.70660 eV ==== 
     psi = 0.201*[#  16]+0.201*[#  17]+0.201*[#  20]+0.201*[#  21]+0.064*[#  12]
          +0.064*[#  13]+0.029*[#   7]+0.029*[#   8]+0.002*[#   4]+0.002*[#   5]
          
    |psi|^2 = 0.994
==== e(  13) =    -1.47414 eV ==== 
     psi = 0.313*[#   9]+0.153*[#  15]+0.153*[#  19]+0.112*[#  12]+0.112*[#  13]
          +0.045*[#   7]+0.045*[#   8]+0.009*[#  14]+0.009*[#  18]+0.006*[#   2]
          +0.004*[#   4]+0.004*[#   5]+0.003*[#  16]+0.003*[#  17]+0.003*[#  20]
          +0.003*[#  21]
    |psi|^2 = 0.981
==== e(  14) =     1.51950 eV ==== 
     psi = 0.430*[#  12]+0.430*[#  13]+0.032*[#  16]+0.032*[#  17]+0.032*[#  20]
          +0.032*[#  21]+0.002*[#   7]+0.002*[#   8]
    |psi|^2 = 0.993
==== e(  15) =     1.92126 eV ==== 
     psi = 0.455*[#   9]+0.127*[#  12]+0.127*[#  13]+0.044*[#  16]+0.044*[#  17]
          +0.044*[#  20]+0.044*[#  21]+0.025*[#  15]+0.025*[#  19]+0.013*[#   2]
          +0.004*[#  14]+0.004*[#  18]+0.003*[#   7]+0.003*[#   8]
    |psi|^2 = 0.965
==== e(  16) =     3.06080 eV ==== 
     psi = 0.227*[#  10]+0.227*[#  11]+0.131*[#  15]+0.131*[#  19]+0.051*[#  14]
          +0.051*[#  18]+0.034*[#   6]+0.016*[#  16]+0.016*[#  17]+0.016*[#  20]
          +0.016*[#  21]
    |psi|^2 = 0.914
==== e(  17) =     3.56726 eV ==== 
     psi = 0.227*[#  10]+0.227*[#  11]+0.131*[#  16]+0.131*[#  17]+0.131*[#  20]
          +0.131*[#  21]
    |psi|^2 = 0.978

 k =   0.4750000000  0.8227241343 -0.0876501565
==== e(   1) =   -61.38247 eV ==== 
     psi = 0.956*[#   1]+0.019*[#   2]+0.004*[#  16]+0.004*[#  17]+0.004*[#  20]
          +0.004*[#  21]+0.003*[#  12]+0.003*[#  13]+0.001*[#  15]+0.001*[#  19]
          
    |psi|^2 = 1.000
==== e(   2) =   -35.77507 eV ==== 
     psi = 0.482*[#   4]+0.482*[#   5]+0.007*[#  15]+0.007*[#  19]+0.005*[#   7]
          +0.005*[#   8]+0.003*[#  14]+0.003*[#  18]
    |psi|^2 = 1.000
==== e(   3) =   -35.54386 eV ==== 
     psi = 0.973*[#   3]+0.007*[#   6]+0.004*[#  16]+0.004*[#  17]+0.004*[#  20]
          +0.004*[#  21]
    |psi|^2 = 1.000
==== e(   4) =   -35.49378 eV ==== 
     psi = 0.490*[#   4]+0.490*[#   5]+0.006*[#   7]+0.006*[#   8]+0.002*[#  16]
          +0.002*[#  17]+0.002*[#  20]+0.002*[#  21]
    |psi|^2 = 1.000
==== e(   5) =   -12.81791 eV ==== 
     psi = 0.353*[#  18]+0.352*[#  14]+0.076*[#   7]+0.076*[#   8]+0.041*[#  12]
          +0.041*[#  13]+0.026*[#   2]+0.007*[#   4]+0.007*[#   5]+0.007*[#  15]
          +0.007*[#  19]+0.002*[#   1]+0.001*[#   9]
    |psi|^2 = 0.999
==== e(   6) =   -12.63866 eV ==== 
     psi = 0.392*[#  14]+0.391*[#  18]+0.098*[#  10]+0.098*[#  11]+0.014*[#   6]
          +0.001*[#  15]+0.001*[#  19]
    |psi|^2 = 0.999
==== e(   7) =    -6.44638 eV ==== 
     psi = 0.153*[#  16]+0.153*[#  17]+0.153*[#  20]+0.153*[#  21]+0.080*[#   2]
          +0.071*[#  12]+0.071*[#  13]+0.036*[#   7]+0.036*[#   8]+0.032*[#   9]
          +0.010*[#  15]+0.010*[#  19]+0.009*[#   1]+0.008*[#  14]+0.008*[#  18]
          +0.002*[#   4]+0.002*[#   5]
    |psi|^2 = 0.989
==== e(   8) =    -5.51686 eV ==== 
     psi = 0.170*[#  16]+0.170*[#  17]+0.170*[#  20]+0.170*[#  21]+0.090*[#  10]
          +0.090*[#  11]+0.055*[#   6]+0.020*[#  14]+0.020*[#  18]+0.015*[#  15]
          +0.015*[#  19]+0.008*[#   3]
    |psi|^2 = 0.992
==== e(   9) =    -4.73792 eV ==== 
     psi = 0.214*[#  15]+0.214*[#  19]+0.158*[#   9]+0.124*[#  12]+0.124*[#  13]
          +0.033*[#  14]+0.033*[#  18]+0.019*[#  16]+0.019*[#  17]+0.019*[#  20]
          +0.019*[#  21]+0.004*[#   4]+0.004*[#   5]+0.003*[#   2]+0.002*[#   7]
          +0.002*[#   8]
    |psi|^2 = 0.990
==== e(  10) =    -3.85738 eV ==== 
     psi = 0.242*[#  10]+0.242*[#  11]+0.121*[#  16]+0.121*[#  17]+0.121*[#  20]
          +0.121*[#  21]+0.008*[#  15]+0.008*[#  19]+0.007*[#   6]+0.001*[#  14]
          +0.001*[#  18]
    |psi|^2 = 0.993
==== e(  11) =    -2.53134 eV ==== 
     psi = 0.320*[#  15]+0.320*[#  19]+0.068*[#  10]+0.068*[#  11]+0.039*[#  16]
          +0.039*[#  17]+0.039*[#  20]+0.039*[#  21]+0.026*[#  14]+0.026*[#  18]
          +0.008*[#   6]+0.003*[#   3]
    |psi|^2 = 0.994
==== e(  12) =    -1.85879 eV ==== 
     psi = 0.168*[#  16]+0.168*[#  17]+0.168*[#  20]+0.168*[#  21]+0.066*[#   9]
          +0.051*[#  15]+0.051*[#  19]+0.042*[#   7]+0.042*[#   8]+0.022*[#  12]
          +0.022*[#  13]+0.006*[#  14]+0.006*[#  18]+0.004*[#   2]+0.003*[#   4]
          +0.003*[#   5]
    |psi|^2 = 0.991
==== e(  13) =    -1.22221 eV ==== 
     psi = 0.218*[#   9]+0.123*[#  12]+0.123*[#  13]+0.120*[#  15]+0.120*[#  19]
          +0.046*[#  16]+0.046*[#  17]+0.046*[#  20]+0.046*[#  21]+0.040*[#   7]
          +0.040*[#   8]+0.005*[#  14]+0.005*[#  18]+0.003*[#   4]+0.003*[#   5]
          
    |psi|^2 = 0.985
==== e(  14) =     1.55469 eV ==== 
     psi = 0.411*[#  12]+0.411*[#  13]+0.073*[#   9]+0.021*[#  16]+0.021*[#  17]
          +0.021*[#  20]+0.021*[#  21]+0.006*[#  15]+0.006*[#  19]+0.002*[#   2]
          +0.002*[#   7]+0.002*[#   8]
    |psi|^2 = 0.994
==== e(  15) =     2.06236 eV ==== 
     psi = 0.430*[#   9]+0.163*[#  12]+0.163*[#  13]+0.038*[#  16]+0.038*[#  17]
          +0.038*[#  20]+0.038*[#  21]+0.018*[#  15]+0.018*[#  19]+0.011*[#   2]
          +0.007*[#   7]+0.007*[#   8]+0.004*[#  14]+0.004*[#  18]
    |psi|^2 = 0.977
==== e(  16) =     3.20929 eV ==== 
     psi = 0.226*[#  10]+0.226*[#  11]+0.130*[#  15]+0.130*[#  19]+0.049*[#  14]
          +0.049*[#  18]+0.027*[#   6]+0.016*[#  16]+0.016*[#  17]+0.016*[#  20]
          +0.016*[#  21]
    |psi|^2 = 0.902
==== e(  17) =     3.49345 eV ==== 
     psi = 0.221*[#  10]+0.221*[#  11]+0.126*[#  16]+0.126*[#  17]+0.126*[#  20]
          +0.126*[#  21]+0.005*[#  15]+0.005*[#  19]
    |psi|^2 = 0.957

 k =   0.4750000000 -0.2742413777 -0.0876501565
==== e(   1) =   -61.38294 eV ==== 
     psi = 0.955*[#   1]+0.018*[#   2]+0.004*[#  16]+0.004*[#  17]+0.004*[#  20]
          +0.004*[#  21]+0.003*[#  12]+0.003*[#  13]+0.001*[#   7]+0.001*[#   8]
          +0.001*[#  15]+0.001*[#  19]
    |psi|^2 = 1.000
==== e(   2) =   -35.77569 eV ==== 
     psi = 0.482*[#   4]+0.482*[#   5]+0.007*[#  15]+0.007*[#  19]+0.006*[#   7]
          +0.006*[#   8]+0.003*[#  14]+0.003*[#  18]
    |psi|^2 = 1.000
==== e(   3) =   -35.54480 eV ==== 
     psi = 0.973*[#   3]+0.007*[#   6]+0.004*[#  16]+0.004*[#  17]+0.004*[#  20]
          +0.004*[#  21]
    |psi|^2 = 1.000
==== e(   4) =   -35.48737 eV ==== 
     psi = 0.490*[#   4]+0.490*[#   5]+0.006*[#   7]+0.006*[#   8]+0.002*[#  16]
          +0.002*[#  17]+0.002*[#  20]+0.002*[#  21]
    |psi|^2 = 1.000
==== e(   5) =   -12.84584 eV ==== 
     psi = 0.350*[#  18]+0.350*[#  14]+0.078*[#   7]+0.078*[#   8]+0.040*[#  12]
          +0.040*[#  13]+0.028*[#   2]+0.007*[#   4]+0.007*[#   5]+0.007*[#  15]
          +0.007*[#  19]+0.002*[#   1]+0.002*[#   9]
    |psi|^2 = 0.999
==== e(   6) =   -12.65236 eV ==== 
     psi = 0.391*[#  14]+0.390*[#  18]+0.098*[#  10]+0.098*[#  11]+0.017*[#   6]
          +0.001*[#  15]+0.001*[#  19]
    |psi|^2 = 0.999
==== e(   7) =    -6.46804 eV ==== 
     psi = 0.151*[#  16]+0.151*[#  17]+0.151*[#  20]+0.151*[#  21]+0.079*[#   2]
          +0.076*[#  12]+0.076*[#  13]+0.035*[#   7]+0.035*[#   8]+0.030*[#   9]
          +0.011*[#  15]+0.011*[#  19]+0.009*[#   1]+0.009*[#  14]+0.009*[#  18]
          +0.002*[#   4]+0.002*[#   5]
    |psi|^2 = 0.989
==== e(   8) =    -5.47187 eV ==== 
     psi = 0.172*[#  16]+0.172*[#  17]+0.172*[#  20]+0.172*[#  21]+0.078*[#  10]
          +0.078*[#  11]+0.060*[#   6]+0.021*[#  14]+0.021*[#  18]+0.018*[#  15]
          +0.018*[#  19]+0.008*[#   3]
    |psi|^2 = 0.992
==== e(   9) =    -4.74333 eV ==== 
     psi = 0.214*[#  15]+0.214*[#  19]+0.162*[#   9]+0.119*[#  12]+0.119*[#  13]
          +0.033*[#  14]+0.033*[#  18]+0.019*[#  16]+0.019*[#  17]+0.019*[#  20]
          +0.019*[#  21]+0.004*[#   2]+0.004*[#   4]+0.004*[#   5]+0.002*[#   7]
          +0.002*[#   8]
    |psi|^2 = 0.990
==== e(  10) =    -3.84341 eV ==== 
     psi = 0.260*[#  10]+0.260*[#  11]+0.118*[#  16]+0.118*[#  17]+0.118*[#  20]
          +0.118*[#  21]
    |psi|^2 = 0.993
==== e(  11) =    -2.53346 eV ==== 
     psi = 0.327*[#  15]+0.327*[#  19]+0.066*[#  10]+0.066*[#  11]+0.037*[#  16]
          +0.037*[#  17]+0.037*[#  20]+0.037*[#  21]+0.025*[#  14]+0.025*[#  18]
          +0.007*[#   6]+0.004*[#   3]
    |psi|^2 = 0.994
==== e(  12) =    -1.63256 eV ==== 
     psi = 0.212*[#  16]+0.212*[#  17]+0.212*[#  20]+0.212*[#  21]+0.041*[#  12]
          +0.041*[#  13]+0.030*[#   7]+0.030*[#   8]+0.002*[#   4]+0.002*[#   5]
          
    |psi|^2 = 0.994
==== e(  13) =    -1.34825 eV ==== 
     psi = 0.297*[#   9]+0.177*[#  15]+0.177*[#  19]+0.093*[#  12]+0.093*[#  13]
          +0.054*[#   7]+0.054*[#   8]+0.010*[#  14]+0.010*[#  18]+0.005*[#   4]
          +0.005*[#   5]+0.002*[#  16]+0.002*[#  17]+0.002*[#  20]+0.002*[#  21]
          
    |psi|^2 = 0.982
==== e(  14) =     1.53914 eV ==== 
     psi = 0.456*[#  12]+0.456*[#  13]+0.020*[#  16]+0.020*[#  17]+0.020*[#  20]
          +0.020*[#  21]+0.002*[#   7]+0.002*[#   8]
    |psi|^2 = 0.995
==== e(  15) =     2.03231 eV ==== 
     psi = 0.483*[#   9]+0.132*[#  12]+0.132*[#  13]+0.042*[#  16]+0.042*[#  17]
          +0.042*[#  20]+0.042*[#  21]+0.014*[#  15]+0.014*[#  19]+0.012*[#   2]
          +0.005*[#   7]+0.005*[#   8]+0.004*[#  14]+0.004*[#  18]
    |psi|^2 = 0.975
==== e(  16) =     3.14936 eV ==== 
     psi = 0.220*[#  10]+0.220*[#  11]+0.133*[#  15]+0.133*[#  19]+0.050*[#  14]
          +0.050*[#  18]+0.029*[#   6]+0.016*[#  16]+0.016*[#  17]+0.016*[#  20]
          +0.016*[#  21]
    |psi|^2 = 0.897
==== e(  17) =     3.60319 eV ==== 
     psi = 0.227*[#  10]+0.227*[#  11]+0.131*[#  16]+0.131*[#  17]+0.131*[#  20]
          +0.131*[#  21]
    |psi|^2 = 0.976

Lowdin Charges: 

     Atom #   1: total charge =  14.5006, s =  2.3131, 
     Atom #   1: total charge =  14.5006, p =  7.0580, pz=  2.3537, px=  2.3522, py=  2.3522, 
     Atom #   1: total charge =  14.5006, d =  5.1294, dz2=  1.1373, dxz=  0.9538, dyz=  0.9538, dx2-y2=  1.0422, dxy=  1.0422, 
     Atom #   2: total charge =   5.6838, s =  1.5746, 
     Atom #   2: total charge =   5.6838, p =  4.1092, pz=  1.5064, px=  1.3014, py=  1.3014, 
     Atom #   2: total charge =   5.6838, d =  0.0000, dz2=  0.0000, dxz=  0.0000, dyz=  0.0000, dx2-y2=  0.0000, dxy=  0.0000, 
     Atom #   3: total charge =   5.6838, s =  1.5746, 
     Atom #   3: total charge =   5.6838, p =  4.1092, pz=  1.5064, px=  1.3014, py=  1.3014, 
     Atom #   3: total charge =   5.6838, d =  0.0000, dz2=  0.0000, dxz=  0.0000, dyz=  0.0000, dx2-y2=  0.0000, dxy=  0.0000, 
     Spilling Parameter:   0.0051

     PROJWFC      :      3.27s CPU      3.59s WALL


   This run was terminated on:  15:52:32  19Jun2025            

=------------------------------------------------------------------------------=
   JOB DONE.
=------------------------------------------------------------------------------=
